; PSBMA-20 CG topology
; Tiled from tests/fixtures/psbma/PSBA.itp (single-monomer auto-martiniM3 output)
; Inter-monomer backbone bond: SC1(m)-SC1(m+1) at b0=0.27 nm, kb=7500.0 (Martini 3 methacrylate default)
;
[ moleculetype ]
PSBMA20   1

[ atoms ]
;  nr  type  resnr  residue  atom  cgnr  charge  mass
     1  SC1      1  PSBMA  C01      1    0.000    54.00
     2  TN5a     1  PSBMA  N01      2    0.000    36.00
     3  TP2a     1  PSBMA  P01      3    0.000    36.00
     4  Q1       1  PSBMA  101      4    1.000    72.00
     5  SC1      1  PSBMA  C02      5    0.000    54.00
     6  Q1       1  PSBMA  102      6   -1.000    72.00
     7  SC1      2  PSBMA  C01      7    0.000    54.00
     8  TN5a     2  PSBMA  N01      8    0.000    36.00
     9  TP2a     2  PSBMA  P01      9    0.000    36.00
    10  Q1       2  PSBMA  101     10    1.000    72.00
    11  SC1      2  PSBMA  C02     11    0.000    54.00
    12  Q1       2  PSBMA  102     12   -1.000    72.00
    13  SC1      3  PSBMA  C01     13    0.000    54.00
    14  TN5a     3  PSBMA  N01     14    0.000    36.00
    15  TP2a     3  PSBMA  P01     15    0.000    36.00
    16  Q1       3  PSBMA  101     16    1.000    72.00
    17  SC1      3  PSBMA  C02     17    0.000    54.00
    18  Q1       3  PSBMA  102     18   -1.000    72.00
    19  SC1      4  PSBMA  C01     19    0.000    54.00
    20  TN5a     4  PSBMA  N01     20    0.000    36.00
    21  TP2a     4  PSBMA  P01     21    0.000    36.00
    22  Q1       4  PSBMA  101     22    1.000    72.00
    23  SC1      4  PSBMA  C02     23    0.000    54.00
    24  Q1       4  PSBMA  102     24   -1.000    72.00
    25  SC1      5  PSBMA  C01     25    0.000    54.00
    26  TN5a     5  PSBMA  N01     26    0.000    36.00
    27  TP2a     5  PSBMA  P01     27    0.000    36.00
    28  Q1       5  PSBMA  101     28    1.000    72.00
    29  SC1      5  PSBMA  C02     29    0.000    54.00
    30  Q1       5  PSBMA  102     30   -1.000    72.00
    31  SC1      6  PSBMA  C01     31    0.000    54.00
    32  TN5a     6  PSBMA  N01     32    0.000    36.00
    33  TP2a     6  PSBMA  P01     33    0.000    36.00
    34  Q1       6  PSBMA  101     34    1.000    72.00
    35  SC1      6  PSBMA  C02     35    0.000    54.00
    36  Q1       6  PSBMA  102     36   -1.000    72.00
    37  SC1      7  PSBMA  C01     37    0.000    54.00
    38  TN5a     7  PSBMA  N01     38    0.000    36.00
    39  TP2a     7  PSBMA  P01     39    0.000    36.00
    40  Q1       7  PSBMA  101     40    1.000    72.00
    41  SC1      7  PSBMA  C02     41    0.000    54.00
    42  Q1       7  PSBMA  102     42   -1.000    72.00
    43  SC1      8  PSBMA  C01     43    0.000    54.00
    44  TN5a     8  PSBMA  N01     44    0.000    36.00
    45  TP2a     8  PSBMA  P01     45    0.000    36.00
    46  Q1       8  PSBMA  101     46    1.000    72.00
    47  SC1      8  PSBMA  C02     47    0.000    54.00
    48  Q1       8  PSBMA  102     48   -1.000    72.00
    49  SC1      9  PSBMA  C01     49    0.000    54.00
    50  TN5a     9  PSBMA  N01     50    0.000    36.00
    51  TP2a     9  PSBMA  P01     51    0.000    36.00
    52  Q1       9  PSBMA  101     52    1.000    72.00
    53  SC1      9  PSBMA  C02     53    0.000    54.00
    54  Q1       9  PSBMA  102     54   -1.000    72.00
    55  SC1     10  PSBMA  C01     55    0.000    54.00
    56  TN5a    10  PSBMA  N01     56    0.000    36.00
    57  TP2a    10  PSBMA  P01     57    0.000    36.00
    58  Q1      10  PSBMA  101     58    1.000    72.00
    59  SC1     10  PSBMA  C02     59    0.000    54.00
    60  Q1      10  PSBMA  102     60   -1.000    72.00
    61  SC1     11  PSBMA  C01     61    0.000    54.00
    62  TN5a    11  PSBMA  N01     62    0.000    36.00
    63  TP2a    11  PSBMA  P01     63    0.000    36.00
    64  Q1      11  PSBMA  101     64    1.000    72.00
    65  SC1     11  PSBMA  C02     65    0.000    54.00
    66  Q1      11  PSBMA  102     66   -1.000    72.00
    67  SC1     12  PSBMA  C01     67    0.000    54.00
    68  TN5a    12  PSBMA  N01     68    0.000    36.00
    69  TP2a    12  PSBMA  P01     69    0.000    36.00
    70  Q1      12  PSBMA  101     70    1.000    72.00
    71  SC1     12  PSBMA  C02     71    0.000    54.00
    72  Q1      12  PSBMA  102     72   -1.000    72.00
    73  SC1     13  PSBMA  C01     73    0.000    54.00
    74  TN5a    13  PSBMA  N01     74    0.000    36.00
    75  TP2a    13  PSBMA  P01     75    0.000    36.00
    76  Q1      13  PSBMA  101     76    1.000    72.00
    77  SC1     13  PSBMA  C02     77    0.000    54.00
    78  Q1      13  PSBMA  102     78   -1.000    72.00
    79  SC1     14  PSBMA  C01     79    0.000    54.00
    80  TN5a    14  PSBMA  N01     80    0.000    36.00
    81  TP2a    14  PSBMA  P01     81    0.000    36.00
    82  Q1      14  PSBMA  101     82    1.000    72.00
    83  SC1     14  PSBMA  C02     83    0.000    54.00
    84  Q1      14  PSBMA  102     84   -1.000    72.00
    85  SC1     15  PSBMA  C01     85    0.000    54.00
    86  TN5a    15  PSBMA  N01     86    0.000    36.00
    87  TP2a    15  PSBMA  P01     87    0.000    36.00
    88  Q1      15  PSBMA  101     88    1.000    72.00
    89  SC1     15  PSBMA  C02     89    0.000    54.00
    90  Q1      15  PSBMA  102     90   -1.000    72.00
    91  SC1     16  PSBMA  C01     91    0.000    54.00
    92  TN5a    16  PSBMA  N01     92    0.000    36.00
    93  TP2a    16  PSBMA  P01     93    0.000    36.00
    94  Q1      16  PSBMA  101     94    1.000    72.00
    95  SC1     16  PSBMA  C02     95    0.000    54.00
    96  Q1      16  PSBMA  102     96   -1.000    72.00
    97  SC1     17  PSBMA  C01     97    0.000    54.00
    98  TN5a    17  PSBMA  N01     98    0.000    36.00
    99  TP2a    17  PSBMA  P01     99    0.000    36.00
   100  Q1      17  PSBMA  101    100    1.000    72.00
   101  SC1     17  PSBMA  C02    101    0.000    54.00
   102  Q1      17  PSBMA  102    102   -1.000    72.00
   103  SC1     18  PSBMA  C01    103    0.000    54.00
   104  TN5a    18  PSBMA  N01    104    0.000    36.00
   105  TP2a    18  PSBMA  P01    105    0.000    36.00
   106  Q1      18  PSBMA  101    106    1.000    72.00
   107  SC1     18  PSBMA  C02    107    0.000    54.00
   108  Q1      18  PSBMA  102    108   -1.000    72.00
   109  SC1     19  PSBMA  C01    109    0.000    54.00
   110  TN5a    19  PSBMA  N01    110    0.000    36.00
   111  TP2a    19  PSBMA  P01    111    0.000    36.00
   112  Q1      19  PSBMA  101    112    1.000    72.00
   113  SC1     19  PSBMA  C02    113    0.000    54.00
   114  Q1      19  PSBMA  102    114   -1.000    72.00
   115  SC1     20  PSBMA  C01    115    0.000    54.00
   116  TN5a    20  PSBMA  N01    116    0.000    36.00
   117  TP2a    20  PSBMA  P01    117    0.000    36.00
   118  Q1      20  PSBMA  101    118    1.000    72.00
   119  SC1     20  PSBMA  C02    119    0.000    54.00
   120  Q1      20  PSBMA  102    120   -1.000    72.00

[ bonds ]
;   i    j  func    b0        kb        ; comment
     1    2    1    0.2400   100000.00  ; intra-monomer
     2    3    1    0.2400    25000.00  ; intra-monomer
     3    4    1    0.3100     5000.00  ; intra-monomer
     4    5    1    0.3300     7000.00  ; intra-monomer
     5    6    1    0.2600     7000.00  ; intra-monomer
     7    8    1    0.2400   100000.00  ; intra-monomer
     8    9    1    0.2400    25000.00  ; intra-monomer
     9   10    1    0.3100     5000.00  ; intra-monomer
    10   11    1    0.3300     7000.00  ; intra-monomer
    11   12    1    0.2600     7000.00  ; intra-monomer
    13   14    1    0.2400   100000.00  ; intra-monomer
    14   15    1    0.2400    25000.00  ; intra-monomer
    15   16    1    0.3100     5000.00  ; intra-monomer
    16   17    1    0.3300     7000.00  ; intra-monomer
    17   18    1    0.2600     7000.00  ; intra-monomer
    19   20    1    0.2400   100000.00  ; intra-monomer
    20   21    1    0.2400    25000.00  ; intra-monomer
    21   22    1    0.3100     5000.00  ; intra-monomer
    22   23    1    0.3300     7000.00  ; intra-monomer
    23   24    1    0.2600     7000.00  ; intra-monomer
    25   26    1    0.2400   100000.00  ; intra-monomer
    26   27    1    0.2400    25000.00  ; intra-monomer
    27   28    1    0.3100     5000.00  ; intra-monomer
    28   29    1    0.3300     7000.00  ; intra-monomer
    29   30    1    0.2600     7000.00  ; intra-monomer
    31   32    1    0.2400   100000.00  ; intra-monomer
    32   33    1    0.2400    25000.00  ; intra-monomer
    33   34    1    0.3100     5000.00  ; intra-monomer
    34   35    1    0.3300     7000.00  ; intra-monomer
    35   36    1    0.2600     7000.00  ; intra-monomer
    37   38    1    0.2400   100000.00  ; intra-monomer
    38   39    1    0.2400    25000.00  ; intra-monomer
    39   40    1    0.3100     5000.00  ; intra-monomer
    40   41    1    0.3300     7000.00  ; intra-monomer
    41   42    1    0.2600     7000.00  ; intra-monomer
    43   44    1    0.2400   100000.00  ; intra-monomer
    44   45    1    0.2400    25000.00  ; intra-monomer
    45   46    1    0.3100     5000.00  ; intra-monomer
    46   47    1    0.3300     7000.00  ; intra-monomer
    47   48    1    0.2600     7000.00  ; intra-monomer
    49   50    1    0.2400   100000.00  ; intra-monomer
    50   51    1    0.2400    25000.00  ; intra-monomer
    51   52    1    0.3100     5000.00  ; intra-monomer
    52   53    1    0.3300     7000.00  ; intra-monomer
    53   54    1    0.2600     7000.00  ; intra-monomer
    55   56    1    0.2400   100000.00  ; intra-monomer
    56   57    1    0.2400    25000.00  ; intra-monomer
    57   58    1    0.3100     5000.00  ; intra-monomer
    58   59    1    0.3300     7000.00  ; intra-monomer
    59   60    1    0.2600     7000.00  ; intra-monomer
    61   62    1    0.2400   100000.00  ; intra-monomer
    62   63    1    0.2400    25000.00  ; intra-monomer
    63   64    1    0.3100     5000.00  ; intra-monomer
    64   65    1    0.3300     7000.00  ; intra-monomer
    65   66    1    0.2600     7000.00  ; intra-monomer
    67   68    1    0.2400   100000.00  ; intra-monomer
    68   69    1    0.2400    25000.00  ; intra-monomer
    69   70    1    0.3100     5000.00  ; intra-monomer
    70   71    1    0.3300     7000.00  ; intra-monomer
    71   72    1    0.2600     7000.00  ; intra-monomer
    73   74    1    0.2400   100000.00  ; intra-monomer
    74   75    1    0.2400    25000.00  ; intra-monomer
    75   76    1    0.3100     5000.00  ; intra-monomer
    76   77    1    0.3300     7000.00  ; intra-monomer
    77   78    1    0.2600     7000.00  ; intra-monomer
    79   80    1    0.2400   100000.00  ; intra-monomer
    80   81    1    0.2400    25000.00  ; intra-monomer
    81   82    1    0.3100     5000.00  ; intra-monomer
    82   83    1    0.3300     7000.00  ; intra-monomer
    83   84    1    0.2600     7000.00  ; intra-monomer
    85   86    1    0.2400   100000.00  ; intra-monomer
    86   87    1    0.2400    25000.00  ; intra-monomer
    87   88    1    0.3100     5000.00  ; intra-monomer
    88   89    1    0.3300     7000.00  ; intra-monomer
    89   90    1    0.2600     7000.00  ; intra-monomer
    91   92    1    0.2400   100000.00  ; intra-monomer
    92   93    1    0.2400    25000.00  ; intra-monomer
    93   94    1    0.3100     5000.00  ; intra-monomer
    94   95    1    0.3300     7000.00  ; intra-monomer
    95   96    1    0.2600     7000.00  ; intra-monomer
    97   98    1    0.2400   100000.00  ; intra-monomer
    98   99    1    0.2400    25000.00  ; intra-monomer
    99  100    1    0.3100     5000.00  ; intra-monomer
   100  101    1    0.3300     7000.00  ; intra-monomer
   101  102    1    0.2600     7000.00  ; intra-monomer
   103  104    1    0.2400   100000.00  ; intra-monomer
   104  105    1    0.2400    25000.00  ; intra-monomer
   105  106    1    0.3100     5000.00  ; intra-monomer
   106  107    1    0.3300     7000.00  ; intra-monomer
   107  108    1    0.2600     7000.00  ; intra-monomer
   109  110    1    0.2400   100000.00  ; intra-monomer
   110  111    1    0.2400    25000.00  ; intra-monomer
   111  112    1    0.3100     5000.00  ; intra-monomer
   112  113    1    0.3300     7000.00  ; intra-monomer
   113  114    1    0.2600     7000.00  ; intra-monomer
   115  116    1    0.2400   100000.00  ; intra-monomer
   116  117    1    0.2400    25000.00  ; intra-monomer
   117  118    1    0.3100     5000.00  ; intra-monomer
   118  119    1    0.3300     7000.00  ; intra-monomer
   119  120    1    0.2600     7000.00  ; intra-monomer
     1    7    1    0.2700     7500.00  ; inter-monomer backbone
     7   13    1    0.2700     7500.00  ; inter-monomer backbone
    13   19    1    0.2700     7500.00  ; inter-monomer backbone
    19   25    1    0.2700     7500.00  ; inter-monomer backbone
    25   31    1    0.2700     7500.00  ; inter-monomer backbone
    31   37    1    0.2700     7500.00  ; inter-monomer backbone
    37   43    1    0.2700     7500.00  ; inter-monomer backbone
    43   49    1    0.2700     7500.00  ; inter-monomer backbone
    49   55    1    0.2700     7500.00  ; inter-monomer backbone
    55   61    1    0.2700     7500.00  ; inter-monomer backbone
    61   67    1    0.2700     7500.00  ; inter-monomer backbone
    67   73    1    0.2700     7500.00  ; inter-monomer backbone
    73   79    1    0.2700     7500.00  ; inter-monomer backbone
    79   85    1    0.2700     7500.00  ; inter-monomer backbone
    85   91    1    0.2700     7500.00  ; inter-monomer backbone
    91   97    1    0.2700     7500.00  ; inter-monomer backbone
    97  103    1    0.2700     7500.00  ; inter-monomer backbone
   103  109    1    0.2700     7500.00  ; inter-monomer backbone
   109  115    1    0.2700     7500.00  ; inter-monomer backbone

[ angles ]
;   i    j    k  func  theta0    ka
     1    2    3    1   122.20     45.00
     1    2    4    1   110.10     45.00
     1    2    5    1   121.60     45.00
     1    2    6    1   106.30     45.00
     1    3    4    1    91.10    100.00
     1    4    5    1   125.80    100.00
     1    5    6    1   111.20    100.00
     2    3    5    1   144.60    250.00
     2    3    6    1   138.10    180.00
     3    4    6    1    97.60    100.00
     7    8    9    1   122.20     45.00
     7    8   10    1   110.10     45.00
     7    8   11    1   121.60     45.00
     7    8   12    1   106.30     45.00
     7    9   10    1    91.10    100.00
     7   10   11    1   125.80    100.00
     7   11   12    1   111.20    100.00
     8    9   11    1   144.60    250.00
     8    9   12    1   138.10    180.00
     9   10   12    1    97.60    100.00
    13   14   15    1   122.20     45.00
    13   14   16    1   110.10     45.00
    13   14   17    1   121.60     45.00
    13   14   18    1   106.30     45.00
    13   15   16    1    91.10    100.00
    13   16   17    1   125.80    100.00
    13   17   18    1   111.20    100.00
    14   15   17    1   144.60    250.00
    14   15   18    1   138.10    180.00
    15   16   18    1    97.60    100.00
    19   20   21    1   122.20     45.00
    19   20   22    1   110.10     45.00
    19   20   23    1   121.60     45.00
    19   20   24    1   106.30     45.00
    19   21   22    1    91.10    100.00
    19   22   23    1   125.80    100.00
    19   23   24    1   111.20    100.00
    20   21   23    1   144.60    250.00
    20   21   24    1   138.10    180.00
    21   22   24    1    97.60    100.00
    25   26   27    1   122.20     45.00
    25   26   28    1   110.10     45.00
    25   26   29    1   121.60     45.00
    25   26   30    1   106.30     45.00
    25   27   28    1    91.10    100.00
    25   28   29    1   125.80    100.00
    25   29   30    1   111.20    100.00
    26   27   29    1   144.60    250.00
    26   27   30    1   138.10    180.00
    27   28   30    1    97.60    100.00
    31   32   33    1   122.20     45.00
    31   32   34    1   110.10     45.00
    31   32   35    1   121.60     45.00
    31   32   36    1   106.30     45.00
    31   33   34    1    91.10    100.00
    31   34   35    1   125.80    100.00
    31   35   36    1   111.20    100.00
    32   33   35    1   144.60    250.00
    32   33   36    1   138.10    180.00
    33   34   36    1    97.60    100.00
    37   38   39    1   122.20     45.00
    37   38   40    1   110.10     45.00
    37   38   41    1   121.60     45.00
    37   38   42    1   106.30     45.00
    37   39   40    1    91.10    100.00
    37   40   41    1   125.80    100.00
    37   41   42    1   111.20    100.00
    38   39   41    1   144.60    250.00
    38   39   42    1   138.10    180.00
    39   40   42    1    97.60    100.00
    43   44   45    1   122.20     45.00
    43   44   46    1   110.10     45.00
    43   44   47    1   121.60     45.00
    43   44   48    1   106.30     45.00
    43   45   46    1    91.10    100.00
    43   46   47    1   125.80    100.00
    43   47   48    1   111.20    100.00
    44   45   47    1   144.60    250.00
    44   45   48    1   138.10    180.00
    45   46   48    1    97.60    100.00
    49   50   51    1   122.20     45.00
    49   50   52    1   110.10     45.00
    49   50   53    1   121.60     45.00
    49   50   54    1   106.30     45.00
    49   51   52    1    91.10    100.00
    49   52   53    1   125.80    100.00
    49   53   54    1   111.20    100.00
    50   51   53    1   144.60    250.00
    50   51   54    1   138.10    180.00
    51   52   54    1    97.60    100.00
    55   56   57    1   122.20     45.00
    55   56   58    1   110.10     45.00
    55   56   59    1   121.60     45.00
    55   56   60    1   106.30     45.00
    55   57   58    1    91.10    100.00
    55   58   59    1   125.80    100.00
    55   59   60    1   111.20    100.00
    56   57   59    1   144.60    250.00
    56   57   60    1   138.10    180.00
    57   58   60    1    97.60    100.00
    61   62   63    1   122.20     45.00
    61   62   64    1   110.10     45.00
    61   62   65    1   121.60     45.00
    61   62   66    1   106.30     45.00
    61   63   64    1    91.10    100.00
    61   64   65    1   125.80    100.00
    61   65   66    1   111.20    100.00
    62   63   65    1   144.60    250.00
    62   63   66    1   138.10    180.00
    63   64   66    1    97.60    100.00
    67   68   69    1   122.20     45.00
    67   68   70    1   110.10     45.00
    67   68   71    1   121.60     45.00
    67   68   72    1   106.30     45.00
    67   69   70    1    91.10    100.00
    67   70   71    1   125.80    100.00
    67   71   72    1   111.20    100.00
    68   69   71    1   144.60    250.00
    68   69   72    1   138.10    180.00
    69   70   72    1    97.60    100.00
    73   74   75    1   122.20     45.00
    73   74   76    1   110.10     45.00
    73   74   77    1   121.60     45.00
    73   74   78    1   106.30     45.00
    73   75   76    1    91.10    100.00
    73   76   77    1   125.80    100.00
    73   77   78    1   111.20    100.00
    74   75   77    1   144.60    250.00
    74   75   78    1   138.10    180.00
    75   76   78    1    97.60    100.00
    79   80   81    1   122.20     45.00
    79   80   82    1   110.10     45.00
    79   80   83    1   121.60     45.00
    79   80   84    1   106.30     45.00
    79   81   82    1    91.10    100.00
    79   82   83    1   125.80    100.00
    79   83   84    1   111.20    100.00
    80   81   83    1   144.60    250.00
    80   81   84    1   138.10    180.00
    81   82   84    1    97.60    100.00
    85   86   87    1   122.20     45.00
    85   86   88    1   110.10     45.00
    85   86   89    1   121.60     45.00
    85   86   90    1   106.30     45.00
    85   87   88    1    91.10    100.00
    85   88   89    1   125.80    100.00
    85   89   90    1   111.20    100.00
    86   87   89    1   144.60    250.00
    86   87   90    1   138.10    180.00
    87   88   90    1    97.60    100.00
    91   92   93    1   122.20     45.00
    91   92   94    1   110.10     45.00
    91   92   95    1   121.60     45.00
    91   92   96    1   106.30     45.00
    91   93   94    1    91.10    100.00
    91   94   95    1   125.80    100.00
    91   95   96    1   111.20    100.00
    92   93   95    1   144.60    250.00
    92   93   96    1   138.10    180.00
    93   94   96    1    97.60    100.00
    97   98   99    1   122.20     45.00
    97   98  100    1   110.10     45.00
    97   98  101    1   121.60     45.00
    97   98  102    1   106.30     45.00
    97   99  100    1    91.10    100.00
    97  100  101    1   125.80    100.00
    97  101  102    1   111.20    100.00
    98   99  101    1   144.60    250.00
    98   99  102    1   138.10    180.00
    99  100  102    1    97.60    100.00
   103  104  105    1   122.20     45.00
   103  104  106    1   110.10     45.00
   103  104  107    1   121.60     45.00
   103  104  108    1   106.30     45.00
   103  105  106    1    91.10    100.00
   103  106  107    1   125.80    100.00
   103  107  108    1   111.20    100.00
   104  105  107    1   144.60    250.00
   104  105  108    1   138.10    180.00
   105  106  108    1    97.60    100.00
   109  110  111    1   122.20     45.00
   109  110  112    1   110.10     45.00
   109  110  113    1   121.60     45.00
   109  110  114    1   106.30     45.00
   109  111  112    1    91.10    100.00
   109  112  113    1   125.80    100.00
   109  113  114    1   111.20    100.00
   110  111  113    1   144.60    250.00
   110  111  114    1   138.10    180.00
   111  112  114    1    97.60    100.00
   115  116  117    1   122.20     45.00
   115  116  118    1   110.10     45.00
   115  116  119    1   121.60     45.00
   115  116  120    1   106.30     45.00
   115  117  118    1    91.10    100.00
   115  118  119    1   125.80    100.00
   115  119  120    1   111.20    100.00
   116  117  119    1   144.60    250.00
   116  117  120    1   138.10    180.00
   117  118  120    1    97.60    100.00
