Title
  782
    1LIG     C1    1   4.745   2.674   0.611 -0.5357  0.5425  0.2591
    1LIG     C2    2   4.730   2.830   0.640 -0.3476  0.6108 -0.2697
    1LIG     C3    3   4.872   2.886   0.672 -0.6176  0.2324 -0.3569
    1LIG     C4    4   4.613   2.858   0.747  0.7003 -0.4943 -0.1437
    1LIG     O1    5   4.490   2.842   0.731 -0.1247 -0.0966  0.7623
    1LIG     O2    6   4.670   2.900   0.859  0.4251  0.5491  0.0218
    1LIG     C5    7   4.572   2.916   0.964  0.2260 -0.3651 -0.1638
    1LIG     C6    8   4.626   3.007   1.084  0.1193 -0.0187  0.6188
    1LIG      N    9   4.766   2.992   1.137  0.2225  0.0402 -0.0414
    1LIG     C7   10   4.791   2.848   1.174  0.1453  0.2030 -0.1043
    1LIG     C8   11   4.776   3.062   1.268  0.0394 -0.0594  0.0032
    1LIG     C9   12   4.868   3.033   1.033  0.0899  0.1507  0.2210
    1LIG    C10   13   5.023   3.020   1.070 -0.6552  0.1469  0.4053
    1LIG    C11   14   5.112   2.992   0.947 -0.3720  0.4794 -0.1283
    1LIG      S   15   5.136   3.149   0.857  0.2475  0.4314 -0.7016
    1LIG     O3   16   5.008   3.195   0.818  0.2165  0.1225  0.1589
    1LIG     O4   17   5.204   3.241   0.948  0.3237 -0.1651 -0.6266
    1LIG     O5   18   5.218   3.116   0.745 -0.0383  0.4550 -0.1178
    1LIG     H5   19   4.835   2.661   0.548 -0.7099  0.4251  0.0327
    1LIG     H6   20   4.759   2.623   0.709 -1.8084  1.0797  0.7398
    1LIG     H7   21   4.651   2.633   0.566 -0.0920 -0.7442  0.4580
    1LIG     H1   22   4.853   2.993   0.696 -0.2631  0.1232  0.4652
    1LIG     H3   23   4.928   2.863   0.579 -0.9151 -1.7379 -0.0935
    1LIG     H2   24   4.921   2.834   0.758  0.5847  0.0869 -1.1019
    1LIG     H8   25   4.481   2.965   0.924 -0.3766 -0.3678  1.1385
    1LIG     H9   26   4.535   2.820   1.005 -3.0695  0.3166 -1.2443
    1LIG    H10   27   4.608   3.109   1.051 -0.7019 -0.0994  0.7951
    1LIG    H11   28   4.549   2.991   1.159 -0.3718 -0.7626 -0.0237
    1LIG    H12   29   4.893   2.836   1.206  0.3295 -0.0678 -0.7840
    1LIG    H13   30   4.723   2.818   1.252  0.2969  2.3995  0.9490
    1LIG    H14   31   4.770   2.782   1.092 -1.1153 -1.2982  1.3756
    1LIG    H15   32   4.744   3.165   1.260  0.0520 -0.1226 -0.9733
    1LIG    H16   33   4.718   3.032   1.354  1.7814  0.2945  1.3487
    1LIG    H17   34   4.873   3.070   1.315 -0.1929 -0.4273  0.5578
    1LIG    H18   35   4.848   2.979   0.941  1.6261  0.5187 -0.3630
    1LIG    H19   36   4.850   3.138   1.013 -0.3477 -0.1335 -0.9559
    1LIG    H20   37   5.052   3.110   1.128 -3.2617  2.2033 -1.2213
    1LIG    H21   38   5.034   2.931   1.136 -1.5822 -0.5354 -0.3307
    1LIG    H22   39   5.211   2.961   0.985  0.5581 -0.4525 -2.9917
    1LIG    H23   40   5.072   2.922   0.870  0.8630 -0.3046 -0.0887
    2LIG     C1   41   4.648   2.955   0.610 -0.6914 -0.4220  0.3005
    2LIG     C2   42   4.612   2.986   0.462  0.3496 -0.0719 -0.3224
    2LIG     C3   43   4.600   2.858   0.375  0.2095  0.4386 -0.7687
    2LIG     C4   44   4.722   3.075   0.391 -0.7517  0.1442  0.0907
    2LIG     O1   45   4.733   3.076   0.270 -0.0990 -0.2443  0.0379
    2LIG     O2   46   4.801   3.133   0.477 -0.0880  0.3918 -0.1905
    2LIG     C5   47   4.917   3.200   0.419  0.0948  0.3664  0.6275
    2LIG     C6   48   4.961   3.315   0.508 -0.7810  0.1656  0.8795
    2LIG      N   49   4.878   3.441   0.532  0.0785 -0.1749  0.3831
    2LIG     C7   50   4.764   3.397   0.622  0.2219  0.3510  1.2670
    2LIG     C8   51   4.824   3.485   0.394 -0.1760 -0.5606  0.1929
    2LIG     C9   52   4.957   3.551   0.601 -0.2961 -0.3090  0.2216
    2LIG    C10   53   4.893   3.692   0.626  0.2560 -0.4147 -1.0281
    2LIG    C11   54   4.983   3.780   0.726  0.2340 -0.5663  0.3225
    2LIG      S   55   4.977   3.711   0.895 -0.1122  0.5390  0.5302
    2LIG     O3   56   4.837   3.705   0.933  0.1736  0.4140  0.3979
    2LIG     O4   57   5.038   3.577   0.891  0.0163  0.3834  0.4907
    2LIG     O5   58   5.052   3.805   0.972 -0.3453 -0.4317  0.4445
    2LIG     H5   59   4.639   3.038   0.683 -0.6515 -1.0886  1.0774
    2LIG     H7   60   4.705   2.861   0.624  0.8216  0.1527 -1.5294
    2LIG     H1   61   4.536   2.873   0.285  0.1079 -0.7237 -0.9031
    2LIG     H3   62   4.555   2.777   0.436  0.4884  0.8361 -0.0307
    2LIG     H2   63   4.701   2.824   0.343  0.3895 -0.1774  0.4365
    2LIG     H8   64   4.997   3.123   0.411 -0.3002  0.0160 -0.1621
    2LIG     H9   65   4.892   3.234   0.316  1.5042  2.5830  0.9705
    2LIG    H10   66   4.987   3.265   0.600  1.2594 -0.7099 -0.1040
    2LIG    H11   67   5.055   3.342   0.463 -0.8951 -0.0976  0.4839
    2LIG    H12   68   4.688   3.472   0.633 -0.1425  0.0764  0.6890
    2LIG    H13   69   4.718   3.310   0.577  0.0734  1.2308 -0.3315
    2LIG    H14   70   4.802   3.380   0.722  1.8391  0.6631  0.7381
    2LIG    H15   71   4.896   3.524   0.324 -1.5605 -1.5677 -1.8984
    2LIG    H16   72   4.770   3.412   0.335  0.1735  1.3576 -2.7189
    2LIG    H17   73   4.752   3.565   0.408 -1.5581 -1.4331 -1.5268
    2LIG    H18   74   4.989   3.530   0.702 -0.4880 -0.5662  0.2308
    2LIG    H19   75   5.042   3.581   0.542 -0.4355 -1.1475 -0.4155
    2LIG    H20   76   4.895   3.757   0.536  1.8869 -0.7682 -1.2806
    2LIG    H21   77   4.789   3.691   0.666 -0.0699  2.2613 -1.6215
    2LIG    H22   78   5.092   3.787   0.703  0.9036 -1.0935  2.9128
    2LIG    H23   79   4.941   3.882   0.738  2.4553  0.2751  1.7878
    3LIG     C1   80   4.539   3.120   0.462 -0.7067  0.5485 -0.4917
    3LIG     C2   81   4.385   3.125   0.481 -0.4353 -0.2718 -0.8452
    3LIG     C3   82   4.321   3.012   0.405 -0.7416 -0.5328 -0.2346
    3LIG     C4   83   4.359   3.130   0.636  0.0038 -0.0220  0.0834
    3LIG     O1   84   4.427   3.195   0.715  0.5570 -0.0163 -0.1727
    3LIG     O2   85   4.238   3.079   0.661 -0.7236 -0.3606  0.1051
    3LIG     C5   86   4.205   3.102   0.797  0.0502 -0.1566  0.1023
    3LIG     C6   87   4.075   3.031   0.832  0.6576 -0.2311  0.3425
    3LIG      N   88   4.052   2.888   0.816  0.2763 -0.1416  0.2858
    3LIG     C7   89   3.923   2.845   0.879  0.1573  0.0770  0.5436
    3LIG     C8   90   4.041   2.842   0.676 -0.6040 -0.2123  0.2536
    3LIG     C9   91   4.155   2.819   0.892  0.3303 -0.6720  0.2315
    3LIG    C10   92   4.149   2.660   0.910 -0.2229 -0.5934  0.1114
    3LIG    C11   93   4.277   2.607   0.986 -0.0573 -0.4051 -0.3160
    3LIG      S   94   4.312   2.684   1.145  0.3434 -0.2340 -0.0757
    3LIG     O3   95   4.456   2.663   1.161  0.3609  0.0227 -0.0426
    3LIG     O4   96   4.244   2.605   1.244 -0.0839  0.3390  0.0891
    3LIG     O5   97   4.282   2.828   1.148  0.3449  0.5628 -0.5774
    3LIG     H5   98   4.593   3.215   0.445  1.2557 -0.5633 -0.7818
    3LIG     H7   99   4.591   3.025   0.439 -1.5298 -0.3482  1.1573
    3LIG     H1  100   4.345   2.912   0.447 -0.0919  0.0393  0.8009
    3LIG     H3  101   4.211   3.024   0.414 -1.0209 -2.2134 -1.0438
    3LIG     H2  102   4.344   3.025   0.297  1.2836  2.3811  0.4342
    3LIG     H8  103   4.191   3.210   0.816  2.3569  0.3106 -0.6200
    3LIG     H9  104   4.289   3.070   0.863  1.1127 -0.1346 -1.2192
    3LIG    H10  105   3.988   3.079   0.788  1.8209  0.5334 -1.2227
    3LIG    H11  106   4.060   3.055   0.936  2.5244  1.0856  0.3520
    3LIG    H12  107   3.926   2.864   0.986  0.4068  0.6580  0.4330
    3LIG    H13  108   3.910   2.738   0.880 -1.5117  0.2470 -0.2010
    3LIG    H14  109   3.839   2.891   0.829  2.0809  2.6770 -0.5060
    3LIG    H15  110   4.132   2.869   0.625 -1.0660 -0.4098 -0.7168
    3LIG    H16  111   3.956   2.881   0.622  0.2796  0.6438 -0.5682
    3LIG    H17  112   4.033   2.735   0.691 -2.6723 -0.0234  0.8328
    3LIG    H18  113   4.166   2.863   0.990 -0.6142 -1.6079  0.7726
    3LIG    H19  114   4.255   2.844   0.858  1.3778 -2.0970  2.1062
    3LIG    H20  115   4.153   2.621   0.806  1.2681  2.0277 -0.9071
    3LIG    H21  116   4.055   2.620   0.952 -0.8359  1.6388  1.0305
    3LIG    H22  117   4.359   2.647   0.923 -0.1406 -1.8228 -1.3593
    3LIG    H23  118   4.282   2.496   0.988 -0.2044 -0.4220  1.7041
    4LIG     C1  119   4.325   3.267   0.483 -0.6456 -0.7515 -0.3670
    4LIG     C2  120   4.288   3.327   0.347  0.1256  0.2425 -0.4666
    4LIG     C3  121   4.154   3.287   0.290 -0.4763 -0.2529 -0.3976
    4LIG     C4  122   4.417   3.325   0.255 -0.5678  0.3321  0.0350
    4LIG     O1  123   4.523   3.381   0.278 -0.1598  0.2629  0.5962
    4LIG     O2  124   4.394   3.247   0.155 -0.2064  0.4948  0.0635
    4LIG     C5  125   4.499   3.224   0.061 -0.8230  0.2838  0.6483
    4LIG     C6  126   4.435   3.169  -0.068 -0.0083  0.7595  0.1077
    4LIG      N  127   4.521   3.127  -0.183 -0.3206  0.2022 -0.9546
    4LIG     C7  128   4.438   3.038  -0.273 -0.4337  0.1080  0.2795
    4LIG     C8  129   4.644   3.058  -0.130  0.0672  0.5629 -0.1029
    4LIG     C9  130   4.566   3.244  -0.268 -0.0458 -0.4554  0.0224
    4LIG    C10  131   4.461   3.352  -0.302 -0.1787  0.3238  0.0133
    4LIG    C11  132   4.529   3.483  -0.350 -0.8092 -0.6011 -0.0424
    4LIG      S  133   4.626   3.561  -0.209 -0.3148 -0.4382 -0.0462
    4LIG     O3  134   4.533   3.570  -0.100 -0.1755  0.5067 -0.0507
    4LIG     O4  135   4.746   3.481  -0.185  0.4877  0.4984 -0.0653
    4LIG     O5  136   4.658   3.696  -0.258  0.6002 -0.1920 -0.1436
    4LIG     H5  137   4.252   3.282   0.565 -1.6687 -1.5993 -1.0996
    4LIG     H7  138   4.377   3.170   0.469  1.6439  0.5913 -1.8199
    4LIG     H1  139   4.080   3.283   0.373  0.6769  0.0391  0.6721
    4LIG     H3  140   4.178   3.184   0.256 -1.9549 -0.5310 -0.6933
    4LIG     H2  141   4.127   3.342   0.197  0.3304  0.4360 -0.2211
    4LIG     H8  142   4.540   3.325   0.038  1.4468 -0.4971  0.9385
    4LIG     H9  143   4.584   3.168   0.107  0.7533  2.0137  0.0089
    4LIG    H10  144   4.379   3.081  -0.041 -0.3849  1.3312  1.2891
    4LIG    H11  145   4.364   3.240  -0.108 -0.7085 -0.6257 -1.1872
    4LIG    H12  146   4.389   2.960  -0.216 -0.0578  0.9690  1.8275
    4LIG    H13  147   4.361   3.102  -0.313  0.0506  1.4098  1.3573
    4LIG    H14  148   4.496   2.991  -0.350 -2.0506 -1.1354 -0.2518
    4LIG    H15  149   4.714   3.038  -0.209 -0.3708  0.4388 -0.4625
    4LIG    H16  150   4.697   3.114  -0.054  0.5349  0.5656 -0.4299
    4LIG    H17  151   4.622   2.963  -0.084  1.1452 -0.2285 -1.1584
    4LIG    H18  152   4.640   3.299  -0.212 -0.0942 -0.9138  0.5472
    4LIG    H19  153   4.620   3.213  -0.356  0.7561 -0.8549  0.6393
    4LIG    H20  154   4.389   3.303  -0.371 -1.1440  1.2590  0.3362
    4LIG    H21  155   4.403   3.381  -0.211  0.1750 -1.2992  0.7934
    4LIG    H22  156   4.593   3.457  -0.437 -0.2542 -1.8545  0.7121
    4LIG    H23  157   4.448   3.556  -0.369 -1.0799 -1.0491 -0.6731
    5LIG     C1  158   4.346   3.475   0.327  0.4933 -0.0683  0.3842
    5LIG     C2  159   4.300   3.581   0.434  0.1605 -0.2350 -0.4625
    5LIG     C3  160   4.164   3.549   0.507  0.7523 -0.3105 -0.4515
    5LIG     C4  161   4.415   3.624   0.529  0.6845  0.4384  0.0500
    5LIG     O1  162   4.533   3.602   0.516  0.0735  0.6891  0.1670
    5LIG     O2  163   4.358   3.693   0.632 -0.2826 -0.5443 -0.1760
    5LIG     C5  164   4.460   3.751   0.722 -0.2926  0.0206  0.3681
    5LIG     C6  165   4.395   3.810   0.852 -0.0738  0.2721 -0.5463
    5LIG      N  166   4.308   3.725   0.950 -0.5419  0.5184  0.2025
    5LIG     C7  167   4.251   3.607   0.882  0.1105 -0.2792 -0.2655
    5LIG     C8  168   4.395   3.672   1.063  0.2636  0.3765 -0.4463
    5LIG     C9  169   4.201   3.815   1.008 -0.2486 -0.1285 -0.5361
    5LIG    C10  170   4.106   3.891   0.915 -0.0955 -0.2920  0.8246
    5LIG    C11  171   3.972   3.925   0.986 -1.0283 -0.4805 -0.0538
    5LIG      S  172   3.977   4.036   1.126  0.1068  0.1811  0.3266
    5LIG     O3  173   4.046   4.151   1.076  0.1987  0.1455 -0.1041
    5LIG     O4  174   4.055   3.967   1.224  0.2710 -0.2691  0.5942
    5LIG     O5  175   3.840   4.062   1.151  0.8347  0.6510  0.1166
    5LIG     H5  176   4.352   3.518   0.225  2.0980  0.0838  0.5072
    5LIG     H7  177   4.291   3.380   0.344 -0.2050  0.5001  1.4399
    5LIG     H1  178   4.073   3.512   0.454 -1.2890 -1.3341  3.4100
    5LIG     H3  179   4.179   3.479   0.592 -0.0207 -0.3451 -0.3384
    5LIG     H2  180   4.115   3.641   0.544  0.2172 -1.2696  1.3272
    5LIG     H8  181   4.528   3.826   0.675 -2.3163  0.9526 -1.2181
    5LIG     H9  182   4.533   3.671   0.746 -0.6204 -0.8644 -1.4772
    5LIG    H10  183   4.329   3.889   0.820 -0.3927  0.4754  0.5767
    5LIG    H11  184   4.465   3.859   0.917 -1.0391  1.0765 -0.0810
    5LIG    H12  185   4.333   3.554   0.837  1.8265 -0.6262  2.9388
    5LIG    H13  186   4.184   3.636   0.802  1.2667 -0.1958 -1.2262
    5LIG    H14  187   4.197   3.535   0.942 -0.6381 -0.5634 -1.2634
    5LIG    H15  188   4.480   3.622   1.019  0.0385 -0.1222 -0.3271
    5LIG    H16  189   4.339   3.618   1.139 -0.4631 -0.0439 -1.2633
    5LIG    H17  190   4.427   3.761   1.114  0.1019 -0.4709  1.2204
    5LIG    H18  191   4.248   3.887   1.073  1.7936 -2.6327  0.9432
    5LIG    H19  192   4.145   3.762   1.084 -0.0599 -1.0303 -1.0041
    5LIG    H20  193   4.078   3.823   0.831 -0.0060  1.0985 -0.3705
    5LIG    H21  194   4.162   3.981   0.882 -0.7968  0.6875  2.1935
    5LIG    H22  195   3.919   3.834   1.022 -0.9701  0.4695  2.7268
    5LIG    H23  196   3.911   3.979   0.910 -1.5956 -1.1525 -0.0874
    6LIG     C1  197   4.323   3.731   0.402  0.5333 -0.5317  0.2755
    6LIG     C2  198   4.227   3.803   0.296 -0.0238 -1.0041  0.4836
    6LIG     C3  199   4.101   3.726   0.246 -0.6188 -0.0256  0.3236
    6LIG     C4  200   4.325   3.864   0.189  0.9152  0.3698 -0.0586
    6LIG     O1  201   4.421   3.935   0.216  0.0088 -0.1899  0.1281
    6LIG     O2  202   4.290   3.825   0.069  0.2291 -0.5721 -0.5825
    6LIG     C5  203   4.377   3.874  -0.035  0.0084 -0.6633  0.2919
    6LIG     C6  204   4.348   3.802  -0.167 -0.1116  0.5752 -0.1112
    6LIG      N  205   4.210   3.808  -0.232 -0.0382 -0.1663 -0.0606
    6LIG     C7  206   4.214   3.730  -0.364  0.1845  0.7673  0.0760
    6LIG     C8  207   4.162   3.947  -0.253  0.4726 -0.2856 -0.3235
    6LIG     C9  208   4.101   3.748  -0.139 -0.5587  0.0123  0.4431
    6LIG    C10  209   4.123   3.602  -0.094 -0.6355  0.0117  0.2538
    6LIG    C11  210   3.993   3.546  -0.028 -0.2735 -0.1864 -0.0780
    6LIG      S  211   3.851   3.539  -0.137  0.0058 -0.2730 -0.1908
    6LIG     O3  212   3.750   3.461  -0.066 -0.2067  0.2244 -0.5930
    6LIG     O4  213   3.815   3.677  -0.148 -0.1095  0.1006 -0.0906
    6LIG     O5  214   3.892   3.481  -0.265  0.0157  0.3171 -0.2330
    6LIG     H5  215   4.427   3.771   0.406  0.0071  0.8222  1.1292
    6LIG     H7  216   4.316   3.620   0.405  1.3853 -0.6162 -0.5568
    6LIG     H1  217   4.144   3.630   0.213  0.6603  0.2929  1.0189
    6LIG     H3  218   4.054   3.787   0.165 -1.5220 -1.5098 -0.3074
    6LIG     H2  219   4.021   3.711   0.321 -3.6470  1.8392 -2.2432
    6LIG     H8  220   4.359   3.981  -0.061 -2.0029 -0.7990  0.9961
    6LIG     H9  221   4.483   3.876  -0.003 -0.2524 -0.5428  1.1577
    6LIG    H10  222   4.424   3.822  -0.241 -0.5693 -0.9273 -1.0447
    6LIG    H11  223   4.360   3.697  -0.144  0.7004  0.5019 -0.8088
    6LIG    H12  224   4.232   3.624  -0.351 -0.3210  0.6115 -0.4718
    6LIG    H13  225   4.125   3.728  -0.424  1.5003 -0.7640 -1.9523
    6LIG    H14  226   4.294   3.765  -0.428 -0.3099 -1.5848 -2.0158
    6LIG    H15  227   4.169   4.010  -0.165  0.5543  1.2006 -1.3428
    6LIG    H16  228   4.212   4.001  -0.332 -0.1703 -1.3095 -1.4601
    6LIG    H17  229   4.061   3.949  -0.292  0.0375  0.1867  0.7723
    6LIG    H18  230   4.096   3.807  -0.048 -2.1550  1.2458 -0.3870
    6LIG    H19  231   4.005   3.745  -0.188 -0.2583 -1.7920 -0.0962
    6LIG    H20  232   4.148   3.532  -0.177  2.2260 -0.2318  1.2034
    6LIG    H21  233   4.209   3.598  -0.024 -2.1853  1.7090  2.3518
    6LIG    H22  234   4.011   3.445   0.017 -2.2146  0.0745  1.3788
    6LIG    H23  235   3.966   3.604   0.062  1.8726 -2.3862  2.1543
    7LIG     C1  236   4.199   3.958   0.292 -0.0220 -0.0103  0.0845
    7LIG     C2  237   4.107   4.018   0.406 -0.6719 -0.0601 -0.1029
    7LIG     C3  238   4.155   3.986   0.550 -0.3678  0.1984  0.0797
    7LIG     C4  239   4.072   4.163   0.374 -0.1583  0.1146  0.3599
    7LIG     O1  240   3.982   4.225   0.430 -0.0115 -0.2167 -0.1397
    7LIG     O2  241   4.161   4.216   0.284 -0.4348  0.7762  0.3706
    7LIG     C5  242   4.139   4.359   0.262 -0.4786  0.3948  0.2869
    7LIG     C6  243   4.262   4.427   0.199 -0.2599 -0.3162 -0.2536
    7LIG      N  244   4.399   4.404   0.267 -0.0504 -0.0866 -0.6232
    7LIG     C7  245   4.440   4.258   0.256 -1.0321  0.2468 -0.3428
    7LIG     C8  246   4.509   4.492   0.203  0.0920 -0.3309 -0.4883
    7LIG     C9  247   4.373   4.442   0.410  0.4501  0.2290 -0.5467
    7LIG    C10  248   4.483   4.405   0.521 -0.4636 -0.4688  0.9909
    7LIG    C11  249   4.459   4.463   0.666 -0.0239 -0.7121 -0.0591
    7LIG      S  250   4.291   4.447   0.727 -0.2877 -0.4464 -0.5252
    7LIG     O3  251   4.249   4.310   0.696 -0.3606 -0.2240  0.0802
    7LIG     O4  252   4.222   4.545   0.651 -0.0578 -0.1241  0.1264
    7LIG     O5  253   4.298   4.479   0.872 -0.1532  0.5196  0.1682
    7LIG     H5  254   4.209   3.847   0.285  2.7913  0.1358  0.6121
    7LIG     H7  255   4.205   4.010   0.194  0.9090 -1.8650 -0.9051
    7LIG     H1  256   4.258   4.019   0.573  0.3602 -1.7849 -0.1015
    7LIG     H3  257   4.078   4.023   0.621  0.1282 -1.2250  1.4197
    7LIG     H2  258   4.150   3.878   0.577 -1.5297  0.7086  2.0786
    7LIG     H8  259   4.113   4.405   0.359 -0.6767 -0.2027  0.5197
    7LIG     H9  260   4.050   4.370   0.196 -1.0395 -0.1500  0.9409
    7LIG    H10  261   4.243   4.534   0.206  1.6824  0.0890 -0.4638
    7LIG    H11  262   4.264   4.409   0.092 -1.9693  1.2522 -0.6077
    7LIG    H12  263   4.484   4.232   0.160 -1.1627  0.2814 -0.4129
    7LIG    H13  264   4.357   4.192   0.271  0.0092 -1.5751 -2.0949
    7LIG    H14  265   4.509   4.224   0.331 -2.4188 -0.9965  0.3923
    7LIG    H15  266   4.483   4.596   0.211  0.4616 -0.2742  0.0586
    7LIG    H16  267   4.521   4.469   0.099  0.0871  0.8787 -0.7663
    7LIG    H17  268   4.596   4.471   0.263 -0.1450  0.3978  0.1350
    7LIG    H18  269   4.283   4.396   0.448  1.2121 -0.2728  0.7528
    7LIG    H19  270   4.357   4.549   0.418 -0.7707  0.0256 -0.1074
    7LIG    H20  271   4.578   4.450   0.485 -0.3774 -1.4264 -0.0310
    7LIG    H21  272   4.495   4.294   0.526 -0.3917 -0.5724 -1.0091
    7LIG    H22  273   4.486   4.571   0.668  1.4226 -1.0510  1.8494
    7LIG    H23  274   4.525   4.412   0.739 -0.6918  0.4560  1.3962
    8LIG     C1  275   3.965   4.055   0.364  0.7494  0.1792 -0.5322
    8LIG     C2  276   3.833   3.986   0.422 -0.0814  0.4125  0.6687
    8LIG     C3  277   3.839   3.923   0.564  0.0001  0.0600 -0.3510
    8LIG     C4  278   3.779   3.878   0.320  0.1376  0.6593 -0.2290
    8LIG     O1  279   3.770   3.893   0.200 -0.2434  0.5955  0.8398
    8LIG     O2  280   3.738   3.764   0.389  0.3214 -0.2470  0.3095
    8LIG     C5  281   3.669   3.664   0.308  0.1697 -0.1581  0.0053
    8LIG     C6  282   3.634   3.532   0.381  0.5828 -0.1377 -0.2151
    8LIG      N  283   3.544   3.517   0.509 -0.2080  0.0837 -0.2725
    8LIG     C7  284   3.486   3.378   0.521 -0.8329  0.0655 -0.4564
    8LIG     C8  285   3.431   3.611   0.498  0.2317 -0.0093  0.4971
    8LIG     C9  286   3.629   3.553   0.637 -0.2050 -0.2970  0.8526
    8LIG    C10  287   3.775   3.498   0.655 -0.0143 -0.0882  0.1640
    8LIG    C11  288   3.856   3.552   0.776  0.1698 -0.0684 -0.1225
    8LIG      S  289   3.811   3.463   0.926 -0.2172 -0.4617 -0.6097
    8LIG     O3  290   3.867   3.326   0.912  0.8557 -0.3530 -0.6922
    8LIG     O4  291   3.876   3.544   1.026  0.2467 -0.2719 -0.4919
    8LIG     O5  292   3.668   3.462   0.937 -0.1342  0.6407  0.1710
    8LIG     H5  293   3.960   4.096   0.261  0.5747  1.1565 -0.1423
    8LIG     H7  294   4.065   4.023   0.401 -0.5351  0.0186  3.2967
    8LIG     H1  295   3.852   3.998   0.645 -0.8856 -0.5232  0.3542
    8LIG     H3  296   3.927   3.855   0.560  1.1285  1.4409 -0.1079
    8LIG     H2  297   3.748   3.862   0.581  0.1902 -0.0931  0.1483
    8LIG     H8  298   3.578   3.713   0.268  0.4200 -0.1734 -0.5888
    8LIG     H9  299   3.730   3.644   0.218 -1.3099  2.8315 -1.8138
    8LIG    H10  300   3.589   3.468   0.307  0.9174  0.2435 -0.7551
    8LIG    H11  301   3.726   3.478   0.402 -0.2436 -1.3687  0.3872
    8LIG    H12  302   3.571   3.315   0.544  0.3610  2.5026  2.4653
    8LIG    H13  303   3.421   3.373   0.607 -0.8983 -1.0436 -0.5622
    8LIG    H14  304   3.438   3.343   0.430  2.0521 -0.3991 -1.9185
    8LIG    H15  305   3.385   3.602   0.401  1.1295  0.1732  0.0454
    8LIG    H16  306   3.364   3.596   0.581 -0.0765 -1.7188 -0.0218
    8LIG    H17  307   3.477   3.708   0.507  0.9049 -0.3482  0.8395
    8LIG    H18  308   3.637   3.661   0.645 -1.3428 -0.2868  2.5153
    8LIG    H19  309   3.568   3.542   0.726  0.6809  1.7985  1.8041
    8LIG    H20  310   3.761   3.388   0.666 -1.7373  0.1841  0.9553
    8LIG    H21  311   3.843   3.520   0.570  2.1627  0.4568  1.9351
    8LIG    H22  312   3.966   3.551   0.757  0.1335  0.6287 -0.4059
    8LIG    H23  313   3.838   3.660   0.790  1.4114 -0.0127  1.3469
    9LIG     C1  314   3.693   4.044   0.379 -0.1719  0.3344 -0.0627
    9LIG     C2  315   3.647   4.176   0.440  0.1835  0.1721 -0.6173
    9LIG     C3  316   3.617   4.174   0.593  0.3425  0.4939  0.5089
    9LIG     C4  317   3.705   4.308   0.389 -0.3847  0.0653 -0.2776
    9LIG     O1  318   3.722   4.334   0.269  0.2355  0.5931 -0.2566
    9LIG     O2  319   3.736   4.389   0.489 -0.5585  0.6145 -0.3198
    9LIG     C5  320   3.822   4.499   0.445  0.2746 -0.5289 -0.2073
    9LIG     C6  321   3.892   4.579   0.564 -0.0505  0.3784 -0.0937
    9LIG      N  322   3.815   4.621   0.689  0.3240 -0.4914 -0.6139
    9LIG     C7  323   3.759   4.502   0.762 -0.2863 -0.3841 -0.0825
    9LIG     C8  324   3.908   4.688   0.784  0.7459 -0.1460  0.1588
    9LIG     C9  325   3.698   4.704   0.656  0.2570  0.1962  0.9600
    9LIG    C10  326   3.733   4.845   0.596  0.1640  0.5606 -0.2836
    9LIG    C11  327   3.606   4.904   0.529 -0.7993  0.0042  0.0241
    9LIG      S  328   3.559   4.820   0.385 -0.0065 -0.1635  0.1309
    9LIG     O3  329   3.677   4.826   0.300 -0.2328 -0.4725 -0.0122
    9LIG     O4  330   3.449   4.899   0.338  0.1465 -0.3219 -0.1093
    9LIG     O5  331   3.521   4.693   0.432  0.0251  0.2652 -0.0832
    9LIG     H5  332   3.791   4.004   0.412 -0.0131 -0.6232 -1.6517
    9LIG     H7  333   3.608   3.976   0.361  0.7461 -0.6715 -0.6647
    9LIG     H1  334   3.571   4.075   0.615 -1.2741  0.7678 -1.3307
    9LIG     H3  335   3.716   4.188   0.641  0.6470 -0.3658  0.1638
    9LIG     H2  336   3.552   4.259   0.620  1.3574  1.8381 -1.0724
    9LIG     H8  337   3.766   4.567   0.378 -1.7461  0.7664  2.5862
    9LIG     H9  338   3.907   4.457   0.388  1.0440  0.4803  0.1645
    9LIG    H10  339   3.916   4.672   0.515 -1.3330  0.1714 -1.1864
    9LIG    H11  340   3.986   4.529   0.582  0.3883  0.5579 -1.7388
    9LIG    H12  341   3.712   4.517   0.858 -3.0085 -1.5410 -1.1157
    9LIG    H13  342   3.830   4.425   0.789 -0.3145 -0.3295  0.1546
    9LIG    H14  343   3.695   4.448   0.693  0.1431  0.8485 -1.4739
    9LIG    H15  344   3.991   4.627   0.816  1.1823  0.2780 -0.1573
    9LIG    H16  345   3.845   4.714   0.868  0.5732  1.6748 -0.4915
    9LIG    H17  346   3.946   4.784   0.755 -1.7464  1.0508  0.5480
    9LIG    H18  347   3.637   4.724   0.743  0.2521  1.0031  0.7764
    9LIG    H19  348   3.636   4.650   0.585 -0.1319 -0.0661  1.4912
    9LIG    H20  349   3.811   4.836   0.518 -0.9362  1.1990 -1.4990
    9LIG    H21  350   3.772   4.909   0.678  0.8893 -1.3444  0.9365
    9LIG    H22  351   3.630   5.008   0.498 -1.3579  0.3153  0.6088
    9LIG    H23  352   3.524   4.916   0.602 -1.5229  0.9090 -0.9135
   10LIG     C1  353   3.555   4.264   0.353  0.0658  0.1721 -0.2952
   10LIG     C2  354   3.430   4.197   0.280  0.3133 -0.0290 -0.2297
   10LIG     C3  355   3.356   4.092   0.367  0.6097  0.6977 -0.8859
   10LIG     C4  356   3.478   4.141   0.142  0.2838  0.1601 -0.4425
   10LIG     O1  357   3.570   4.189   0.077 -0.3041  0.1326 -0.1981
   10LIG     O2  358   3.409   4.037   0.105  0.1466 -0.4123 -0.6341
   10LIG     C5  359   3.467   3.979  -0.017 -0.3996 -0.3865 -0.9649
   10LIG     C6  360   3.370   3.875  -0.076 -0.2883  0.1408 -0.0866
   10LIG      N  361   3.255   3.926  -0.174 -0.7121  0.2247 -0.1062
   10LIG     C7  362   3.148   4.009  -0.095 -0.3858  0.1031 -0.0875
   10LIG     C8  363   3.187   3.801  -0.219 -0.3277  0.1647  0.6084
   10LIG     C9  364   3.306   4.001  -0.287 -0.6595 -0.2183 -0.4462
   10LIG    C10  365   3.406   3.930  -0.376  0.6040  0.7382  0.7144
   10LIG    C11  366   3.476   4.022  -0.479 -0.0514 -0.0303 -0.5165
   10LIG      S  367   3.592   4.148  -0.422  0.2819  0.0013  0.2932
   10LIG     O3  368   3.513   4.233  -0.344 -0.5153 -0.6125  0.6804
   10LIG     O4  369   3.701   4.081  -0.352  0.5230  0.2896 -0.0253
   10LIG     O5  370   3.647   4.211  -0.539  0.8036  0.2583  0.3410
   10LIG     H5  371   3.600   4.202   0.434  1.9320 -1.4719 -2.4822
   10LIG     H7  372   3.526   4.364   0.391  0.2524  0.5524 -1.1377
   10LIG     H1  373   3.247   4.084   0.346  0.5136 -0.2131 -0.0997
   10LIG     H3  374   3.365   4.121   0.474 -0.3693  0.4507 -0.7261
   10LIG     H2  375   3.400   3.992   0.350 -1.0679 -0.2920  0.2542
   10LIG     H8  376   3.490   4.058  -0.092 -0.0769  2.3272  1.7742
   10LIG     H9  377   3.563   3.930   0.011 -0.2401  0.0699 -0.6956
   10LIG    H10  378   3.427   3.807  -0.136 -0.1636  0.2871 -0.1352
   10LIG    H11  379   3.321   3.813  -0.003 -0.9088  1.5858  0.7698
   10LIG    H12  380   3.059   4.027  -0.153 -1.9109 -2.8119  1.1550
   10LIG    H13  381   3.115   3.963  -0.003  0.8181 -2.1317 -0.6920
   10LIG    H14  382   3.200   4.098  -0.064  1.6446 -1.2732  0.6960
   10LIG    H15  383   3.161   3.730  -0.142 -1.2892  2.2203  2.2479
   10LIG    H16  384   3.097   3.811  -0.278  0.2585 -2.0499 -0.8044
   10LIG    H17  385   3.249   3.757  -0.296 -1.0824  0.0051  0.0809
   10LIG    H18  386   3.228   4.037  -0.353 -0.1820  0.5491 -0.6092
   10LIG    H19  387   3.354   4.091  -0.250 -0.8612 -0.8494  1.4164
   10LIG    H20  388   3.481   3.877  -0.313 -0.4470 -0.4252  1.0419
   10LIG    H21  389   3.358   3.844  -0.428 -1.1590 -0.1104  3.4759
   10LIG    H22  390   3.535   3.959  -0.550  1.1199  1.2426 -0.7077
   10LIG    H23  391   3.397   4.072  -0.539  0.4764 -0.3847 -1.5221
   11LIG     C1  392   3.347   4.291   0.187  0.0811  0.1165  0.1056
   11LIG     C2  393   3.217   4.346   0.261 -0.4008 -0.1942  0.7967
   11LIG     C3  394   3.238   4.403   0.405  0.3346 -0.3869  0.7256
   11LIG     C4  395   3.087   4.266   0.232 -0.0325  0.4120  0.5540
   11LIG     O1  396   3.049   4.227   0.123  0.3476 -0.1213 -0.0173
   11LIG     O2  397   3.025   4.246   0.350  0.3087  0.3483  0.1305
   11LIG     C5  398   2.918   4.154   0.344  0.3158  0.4896 -0.0398
   11LIG     C6  399   2.817   4.186   0.455 -0.0038 -0.2424 -0.3307
   11LIG      N  400   2.851   4.162   0.599 -0.1956 -0.6163 -0.3307
   11LIG     C7  401   2.744   4.210   0.691  0.0038  0.2955 -0.0636
   11LIG     C8  402   2.976   4.229   0.637 -0.2298  0.3195 -0.0258
   11LIG     C9  403   2.863   4.013   0.627  0.4997 -0.2873  0.2520
   11LIG    C10  404   2.736   3.922   0.589  0.1570 -0.2625 -0.7001
   11LIG    C11  405   2.762   3.774   0.596  0.6257 -0.2563  0.1296
   11LIG      S  406   2.874   3.724   0.459  0.2103  0.0048  0.1759
   11LIG     O3  407   2.915   3.587   0.471  0.3280 -0.1620 -0.6200
   11LIG     O4  408   2.799   3.753   0.340 -0.4605  0.2739  0.7902
   11LIG     O5  409   2.988   3.816   0.469 -0.1592  0.0689  0.5239
   11LIG     H5  410   3.341   4.262   0.080 -0.2677  0.9863 -0.1190
   11LIG     H7  411   3.419   4.235   0.251  0.9840  2.4529  1.2776
   11LIG     H1  412   3.158   4.475   0.433  1.7385  1.1308  0.9770
   11LIG     H3  413   3.329   4.467   0.405 -0.4711  0.8132  1.3567
   11LIG     H2  414   3.260   4.326   0.482 -0.3647 -0.4205  0.9004
   11LIG     H8  415   2.863   4.165   0.248  1.1828  2.2851 -0.3727
   11LIG     H9  416   2.944   4.047   0.359 -2.4974 -0.1489  1.0497
   11LIG    H10  417   2.782   4.287   0.445  0.8558  0.3579  1.9507
   11LIG    H11  418   2.726   4.134   0.430 -0.3324 -0.6604  1.5920
   11LIG    H12  419   2.775   4.195   0.794  1.2954  0.4932 -0.4030
   11LIG    H13  420   2.729   4.317   0.683 -0.1900  0.3086  0.4166
   11LIG    H14  421   2.651   4.155   0.689  0.1006 -0.0016  1.6757
   11LIG    H15  422   2.964   4.329   0.675 -1.6076  0.7437 -1.4949
   11LIG    H16  423   3.034   4.163   0.701  0.7014  0.0870 -1.0835
   11LIG    H17  424   3.033   4.242   0.546 -0.2634  2.3501  0.2002
   11LIG    H18  425   2.945   3.979   0.567  0.0102 -0.0581 -0.5596
   11LIG    H19  426   2.890   4.006   0.732 -0.3520  2.5999  0.7585
   11LIG    H20  427   2.648   3.957   0.646 -0.4119  0.8051 -2.1871
   11LIG    H21  428   2.705   3.957   0.489 -2.3379 -1.3404 -0.3668
   11LIG    H22  429   2.810   3.732   0.686 -1.7164 -0.7221  1.2404
   11LIG    H23  430   2.667   3.716   0.594  0.3904  0.1174  0.3646
   12LIG     C1  431   3.129   4.427   0.165 -0.5637  0.7182 -0.0188
   12LIG     C2  432   3.177   4.555   0.100  0.4637  0.0595  0.2408
   12LIG     C3  433   3.261   4.647   0.190 -0.0588 -0.0547  0.0845
   12LIG     C4  434   3.241   4.508  -0.032  0.0434 -0.3886 -0.7319
   12LIG     O1  435   3.175   4.446  -0.117 -0.1508 -0.0851  1.0400
   12LIG     O2  436   3.378   4.518  -0.029  0.3849  0.0701  0.0987
   12LIG     C5  437   3.433   4.443  -0.142 -0.5964 -0.4505 -0.5835
   12LIG     C6  438   3.581   4.418  -0.109 -0.7379 -0.5158 -0.0741
   12LIG      N  439   3.670   4.530  -0.065 -0.0084 -0.0385 -0.4857
   12LIG     C7  440   3.657   4.659  -0.138 -0.0977  0.2946  0.9788
   12LIG     C8  441   3.640   4.558   0.085  0.5980 -0.1605  0.5118
   12LIG     C9  442   3.816   4.497  -0.077  0.0708  0.0096  0.2559
   12LIG    C10  443   3.866   4.445  -0.208  0.1424 -0.1253 -0.9527
   12LIG    C11  444   4.016   4.402  -0.192 -0.0813  0.3307 -0.0448
   12LIG      S  445   4.145   4.531  -0.167 -0.1250  0.2939 -0.1305
   12LIG     O3  446   4.267   4.453  -0.165  0.0759 -0.3518  0.5865
   12LIG     O4  447   4.121   4.601  -0.040  0.0036 -0.5977  0.2475
   12LIG     O5  448   4.128   4.616  -0.286 -0.1178  0.5611  0.2175
   12LIG     H5  449   3.050   4.430   0.243  1.4051 -2.2126  2.3065
   12LIG     H7  450   3.208   4.356   0.197 -0.7633  0.7428  0.5489
   12LIG     H1  451   3.284   4.738   0.132 -2.6171  0.9316  0.4670
   12LIG     H3  452   3.198   4.663   0.280  0.3557 -2.1175  0.7923
   12LIG     H2  453   3.349   4.587   0.221  0.2195  0.3570  0.0813
   12LIG     H8  454   3.420   4.500  -0.236 -0.3483 -1.0947 -1.0164
   12LIG     H9  455   3.391   4.340  -0.152 -0.1763 -0.5647 -1.2864
   12LIG    H10  456   3.619   4.380  -0.203  1.6841  2.0840 -0.2608
   12LIG    H11  457   3.588   4.330  -0.046  0.9677 -1.1497 -1.1021
   12LIG    H12  458   3.559   4.699  -0.115 -0.6350 -1.0938  1.2663
   12LIG    H13  459   3.658   4.640  -0.244 -1.1276  1.4276  0.7456
   12LIG    H14  460   3.730   4.735  -0.116 -2.6259  2.9766  0.6530
   12LIG    H15  461   3.538   4.592   0.096  0.0124 -1.5957 -0.1377
   12LIG    H16  462   3.700   4.640   0.119 -1.2711  2.5758 -2.2542
   12LIG    H17  463   3.648   4.461   0.133  2.0844  0.3689  1.3977
   12LIG    H18  464   3.846   4.423  -0.004  0.0871 -0.2386 -0.0040
   12LIG    H19  465   3.877   4.584  -0.057 -1.0480  0.9912 -0.5019
   12LIG    H20  466   3.859   4.526  -0.284  0.2061 -0.2372 -1.0779
   12LIG    H21  467   3.817   4.348  -0.229  0.9491 -1.2879  2.0352
   12LIG    H22  468   4.041   4.346  -0.284 -0.4089 -0.3569  0.2697
   12LIG    H23  469   4.026   4.337  -0.102 -1.0862  0.6898  0.3377
   13LIG     C1  470   3.061   4.617   0.009 -0.3040 -0.3027 -0.1876
   13LIG     C2  471   2.961   4.710   0.074 -0.3880  0.3415  0.5038
   13LIG     C3  472   2.885   4.650   0.196 -0.4291  0.3374 -0.5007
   13LIG     C4  473   3.030   4.850   0.097  0.0829 -0.8054 -0.3206
   13LIG     O1  474   3.109   4.901   0.020  0.0421 -0.7093 -0.1627
   13LIG     O2  475   2.999   4.898   0.218  0.2318 -0.2351 -0.3389
   13LIG     C5  476   3.093   4.994   0.264 -0.0640 -0.4358 -0.1886
   13LIG     C6  477   3.042   5.076   0.380 -0.2152  0.0331 -0.3356
   13LIG      N  478   2.961   4.997   0.488  0.4811  0.2754 -0.0286
   13LIG     C7  479   2.912   5.088   0.594 -0.2487  0.1328 -0.3692
   13LIG     C8  480   3.047   4.892   0.547 -0.0419 -0.2011 -0.2740
   13LIG     C9  481   2.835   4.918   0.445 -0.1454 -0.3561 -0.4290
   13LIG    C10  482   2.717   5.002   0.395  0.6505  0.1375  0.1070
   13LIG    C11  483   2.595   4.908   0.361  0.4258 -0.8544  0.1691
   13LIG      S  484   2.542   4.827   0.509 -0.1508 -0.4898  0.1249
   13LIG     O3  485   2.566   4.925   0.612 -0.8332  0.2551 -0.5655
   13LIG     O4  486   2.404   4.797   0.489 -0.1321 -0.6058 -0.4186
   13LIG     O5  487   2.633   4.719   0.525  0.2616  0.0166  0.5621
   13LIG     H5  488   3.026   4.513   0.026 -0.5446 -0.4637 -1.5458
   13LIG     H7  489   3.170   4.636   0.001  0.2201 -3.0146 -0.6850
   13LIG     H1  490   2.788   4.701   0.212 -0.5480 -0.1872  0.5491
   13LIG     H3  491   2.945   4.648   0.289 -1.8740 -1.3284  0.4557
   13LIG     H2  492   2.865   4.542   0.177  1.8263 -0.2216 -0.0228
   13LIG     H8  493   3.184   4.944   0.303 -0.0960  0.4438  1.0858
   13LIG     H9  494   3.120   5.065   0.183  0.4561 -1.1084 -0.6162
   13LIG    H10  495   3.116   5.131   0.436 -0.2206  0.6864 -0.9523
   13LIG    H11  496   2.973   5.148   0.338 -0.1514  1.3869  1.7911
   13LIG    H12  497   2.856   5.041   0.673 -0.0324  0.4197 -0.0391
   13LIG    H13  498   2.996   5.137   0.642 -0.3952 -0.3075  0.3475
   13LIG    H14  499   2.851   5.168   0.553 -1.7882 -0.5671  0.4604
   13LIG    H15  500   3.139   4.936   0.582  0.6317 -1.6374 -0.1994
   13LIG    H16  501   2.991   4.833   0.618 -0.8340  0.5289 -0.2638
   13LIG    H17  502   3.078   4.829   0.466  1.3885  0.8429 -0.5819
   13LIG    H18  503   2.863   4.841   0.375  0.8443 -0.7984  0.4341
   13LIG    H19  504   2.799   4.864   0.532 -0.3496 -0.4831 -0.5919
   13LIG    H20  505   2.682   5.085   0.460 -1.8806 -0.4527 -0.3990
   13LIG    H21  506   2.757   5.037   0.298  0.6168  0.1597  0.1013
   13LIG    H22  507   2.523   4.981   0.319  1.7507 -0.1211 -0.9017
   13LIG    H23  508   2.626   4.833   0.285  0.2681 -0.1132 -0.6262
   14LIG     C1  509   2.874   4.791  -0.035 -0.3586  0.3692  0.6626
   14LIG     C2  510   2.739   4.732  -0.096  0.4388 -0.0192 -0.7748
   14LIG     C3  511   2.738   4.581  -0.119  0.2451  0.3233  0.2593
   14LIG     C4  512   2.623   4.783  -0.008  0.1020  0.3264 -0.2484
   14LIG     O1  513   2.607   4.895   0.035 -0.4430 -0.0926 -0.4259
   14LIG     O2  514   2.550   4.674   0.030  0.2589 -0.3319  0.2925
   14LIG     C5  515   2.440   4.697   0.123  0.0772  0.2445 -0.0015
   14LIG     C6  516   2.301   4.644   0.072  0.5942  0.7145  0.2841
   14LIG      N  517   2.280   4.501   0.024 -0.1611 -0.0636 -0.0253
   14LIG     C7  518   2.138   4.478  -0.014  0.4644  0.1411 -0.4643
   14LIG     C8  519   2.366   4.468  -0.092 -0.0670  0.4992 -0.0092
   14LIG     C9  520   2.317   4.401   0.132 -0.6455 -0.0350 -0.0991
   14LIG    C10  521   2.326   4.245   0.097  0.1734 -0.2757  0.0949
   14LIG    C11  522   2.335   4.167   0.229 -0.7814 -0.0353 -0.3611
   14LIG      S  523   2.472   4.195   0.339 -0.2273 -0.0258 -0.0309
   14LIG     O3  524   2.588   4.205   0.254 -0.3721 -0.4796  0.1650
   14LIG     O4  525   2.471   4.081   0.432  0.4047  0.2223  0.1168
   14LIG     O5  526   2.435   4.323   0.403 -0.1752  0.0829 -0.0054
   14LIG     H5  527   2.875   4.899  -0.007 -0.9869  0.1198  1.6995
   14LIG     H7  528   2.954   4.725   0.005  1.3418  0.6700 -1.9833
   14LIG     H1  529   2.719   4.517  -0.031 -1.7369 -0.5627 -0.7487
   14LIG     H3  530   2.649   4.565  -0.183 -0.1959  0.6603  0.7740
   14LIG     H2  531   2.832   4.551  -0.170  0.1909 -1.2689  1.0528
   14LIG     H8  532   2.430   4.803   0.155 -1.1462  0.3952 -0.8423
   14LIG     H9  533   2.465   4.642   0.217 -0.6465  0.6583  0.4401
   14LIG    H10  534   2.275   4.713  -0.008  1.9682  1.7047  0.6550
   14LIG    H11  535   2.229   4.660   0.150  0.5676  1.3672  0.1352
   14LIG    H12  536   2.126   4.372  -0.029  2.5530 -0.2287  0.1216
   14LIG    H13  537   2.123   4.538  -0.103  0.2753  1.3279  0.3538
   14LIG    H14  538   2.069   4.499   0.066 -1.0331 -1.9572 -1.1364
   14LIG    H15  539   2.353   4.364  -0.119 -2.1207  0.8454 -0.5575
   14LIG    H16  540   2.468   4.488  -0.063  0.3368 -0.6135 -0.5905
   14LIG    H17  541   2.338   4.535  -0.172 -0.8454 -0.3946 -0.5210
   14LIG    H18  542   2.241   4.410   0.208 -2.3176 -1.5388 -1.5079
   14LIG    H19  543   2.417   4.428   0.164  0.1061 -0.4173 -1.9779
   14LIG    H20  544   2.418   4.236   0.036 -0.0479  1.8520 -0.6305
   14LIG    H21  545   2.235   4.207   0.046  0.2665 -1.4343  0.7426
   14LIG    H22  546   2.345   4.059   0.204  1.2899  0.0731 -0.2064
   14LIG    H23  547   2.247   4.192   0.292 -0.4781 -1.5347  0.7379
   15LIG     C1  548   2.647   4.829  -0.176 -0.2907  0.6767 -0.5338
   15LIG     C2  549   2.687   4.838  -0.329  0.3255  0.1501 -0.4940
   15LIG     C3  550   2.839   4.824  -0.360  0.4055 -0.0588  0.2761
   15LIG     C4  551   2.604   4.740  -0.421 -0.0679 -1.0988  0.8305
   15LIG     O1  552   2.491   4.697  -0.402  0.8075 -0.0593 -0.1900
   15LIG     O2  553   2.677   4.704  -0.533  0.1933  0.2087  0.1283
   15LIG     C5  554   2.587   4.626  -0.616 -0.2656  0.5891  0.6263
   15LIG     C6  555   2.669   4.581  -0.744  0.7251  0.6543  0.6686
   15LIG      N  556   2.693   4.680  -0.855 -0.5658  0.1901 -0.0275
   15LIG     C7  557   2.575   4.751  -0.900 -0.2820 -0.3191 -0.1035
   15LIG     C8  558   2.798   4.778  -0.800  0.4067 -0.0915 -0.6120
   15LIG     C9  559   2.757   4.613  -0.973 -0.0969 -0.4912 -0.1153
   15LIG    C10  560   2.663   4.518  -1.041 -0.2018  0.1877  0.1823
   15LIG    C11  561   2.722   4.479  -1.183  0.4927  0.2372  0.1289
   15LIG      S  562   2.890   4.411  -1.191 -0.4274 -0.4346  0.1807
   15LIG     O3  563   2.980   4.523  -1.159  0.0335 -0.5541  0.1167
   15LIG     O4  564   2.901   4.369  -1.332 -0.6891  0.1468 -0.2380
   15LIG     O5  565   2.911   4.294  -1.107 -0.8449 -0.4282 -0.6311
   15LIG     H5  566   2.715   4.766  -0.114 -0.1242  0.5554 -0.8311
   15LIG     H7  567   2.541   4.813  -0.150  0.1984 -1.0394  0.6277
   15LIG     H1  568   2.878   4.721  -0.349  2.0469  0.4936 -0.0477
   15LIG     H3  569   2.842   4.856  -0.467 -2.6443  0.3315  0.2151
   15LIG     H2  570   2.896   4.890  -0.291  0.4137  0.3750 -0.1371
   15LIG     H8  571   2.499   4.687  -0.647 -0.2183  0.0618 -0.5983
   15LIG     H9  572   2.561   4.533  -0.562  2.7660 -0.1789  0.9015
   15LIG    H10  573   2.615   4.493  -0.779  0.0656  0.8898  1.0704
   15LIG    H11  574   2.763   4.550  -0.702  1.4272  0.1618 -1.1494
   15LIG    H12  575   2.502   4.679  -0.934  0.8802 -1.6971  0.2118
   15LIG    H13  576   2.599   4.817  -0.982 -0.9282 -2.2545 -1.9334
   15LIG    H14  577   2.515   4.814  -0.836 -0.6096 -0.9373  0.1986
   15LIG    H15  578   2.750   4.843  -0.728  1.0773  1.2747 -1.3593
   15LIG    H16  579   2.847   4.846  -0.866  2.1367 -0.6832  0.0113
   15LIG    H17  580   2.879   4.719  -0.759 -1.0517 -1.8168 -0.0604
   15LIG    H18  581   2.847   4.567  -0.934  0.3080  0.6111  0.3211
   15LIG    H19  582   2.785   4.690  -1.044 -1.1803  1.6222  1.6128
   15LIG    H20  583   2.571   4.570  -1.077  0.4379  1.4330  0.2653
   15LIG    H21  584   2.637   4.430  -0.979 -1.4323  0.1329 -0.3767
   15LIG    H22  585   2.721   4.566  -1.253  0.9716  1.2900  1.3991
   15LIG    H23  586   2.648   4.405  -1.220 -0.0808  0.7486  0.2302
   16LIG     C1  587   2.590   4.939  -0.408  0.3460 -0.4293  0.2719
   16LIG     C2  588   2.637   5.081  -0.410 -0.2216 -0.4272  0.3455
   16LIG     C3  589   2.667   5.136  -0.266 -1.1153 -0.1283  0.2507
   16LIG     C4  590   2.754   5.104  -0.519  0.2432 -0.0788 -0.6909
   16LIG     O1  591   2.749   5.052  -0.629  0.4694 -0.0747 -0.2107
   16LIG     O2  592   2.859   5.168  -0.468  0.2988  0.1015 -0.3639
   16LIG     C5  593   2.952   5.191  -0.578  0.2455  0.7836  0.3747
   16LIG     C6  594   3.066   5.286  -0.534 -0.1457 -0.1706 -0.0373
   16LIG      N  595   3.149   5.260  -0.413  0.3411 -0.1092  0.1989
   16LIG     C7  596   3.254   5.361  -0.413  0.7380  0.6519  0.3909
   16LIG     C8  597   3.201   5.118  -0.417  0.3084  0.1101  0.0964
   16LIG     C9  598   3.060   5.277  -0.292  0.1907 -0.1232 -0.1296
   16LIG    C10  599   3.127   5.265  -0.153  0.5735 -0.1773 -0.7210
   16LIG    C11  600   3.014   5.293  -0.055  0.0234 -0.5980 -0.1101
   16LIG      S  601   2.981   5.476  -0.041  0.0341  0.0524  0.0633
   16LIG     O3  602   2.880   5.484   0.060  0.3649 -0.0322  0.0306
   16LIG     O4  603   3.100   5.542   0.007  0.0495 -0.1401 -0.3172
   16LIG     O5  604   2.932   5.523  -0.171  0.7313 -0.1338 -0.2900
   16LIG     H5  605   2.548   4.904  -0.505  0.4932  0.3731 -0.0905
   16LIG     H7  606   2.642   4.868  -0.341 -0.7747 -0.4842  1.1031
   16LIG     H1  607   2.581   5.106  -0.202 -2.6416 -0.5530 -1.8960
   16LIG     H3  608   2.672   5.246  -0.275 -0.7868 -0.1093  0.6512
   16LIG     H2  609   2.768   5.109  -0.227 -1.1112  1.3032  1.2896
   16LIG     H8  610   2.999   5.098  -0.617  1.4996  0.9192  1.5076
   16LIG     H9  611   2.900   5.239  -0.664  1.0254 -1.3754 -1.4075
   16LIG    H10  612   3.122   5.299  -0.625  0.4259  0.6093  0.4087
   16LIG    H11  613   3.013   5.379  -0.540 -0.2095 -0.1400  0.8357
   16LIG    H12  614   3.323   5.354  -0.331  0.7702  0.0393  0.3181
   16LIG    H13  615   3.319   5.370  -0.499 -0.2467 -0.7544 -0.5548
   16LIG    H14  616   3.210   5.459  -0.403 -0.3852  0.1037  1.0283
   16LIG    H15  617   3.247   5.089  -0.323 -1.7149  0.1207  1.1433
   16LIG    H16  618   3.125   5.045  -0.439  0.6785 -0.2151 -0.0895
   16LIG    H17  619   3.264   5.105  -0.503 -0.6711  1.2273 -0.8328
   16LIG    H18  620   3.011   5.373  -0.293  2.6973  1.2448 -0.7198
   16LIG    H19  621   2.979   5.205  -0.290 -0.3623  0.5057  1.0514
   16LIG    H20  622   3.168   5.163  -0.139  0.4159 -0.4262 -2.0112
   16LIG    H21  623   3.214   5.332  -0.133  0.4599 -0.1567 -0.2694
   16LIG    H22  624   2.921   5.246  -0.094  0.5093 -1.5576 -0.1541
   16LIG    H23  625   3.034   5.245   0.044  3.0546 -0.4510 -0.5501
   17LIG     C1  626   2.596   5.173  -0.532  0.1946  0.4643  0.6164
   17LIG     C2  627   2.444   5.192  -0.563  0.2379 -0.6875  0.2310
   17LIG     C3  628   2.352   5.198  -0.434  0.4482 -0.2098  0.1335
   17LIG     C4  629   2.383   5.089  -0.662  0.0354 -0.1677  0.2016
   17LIG     O1  630   2.429   4.982  -0.695 -0.2826 -0.1880 -0.8162
   17LIG     O2  631   2.267   5.133  -0.708 -0.0216  0.1533  0.1027
   17LIG     C5  632   2.202   5.058  -0.816  0.1077 -0.4717  0.1922
   17LIG     C6  633   2.063   4.999  -0.769 -0.3927  0.5922  0.4894
   17LIG      N  634   2.059   4.918  -0.638 -0.0081  0.3136  0.9298
   17LIG     C7  635   2.052   5.004  -0.513 -0.7971 -0.2735  0.0762
   17LIG     C8  636   2.172   4.817  -0.637 -0.6131 -0.5232 -0.5032
   17LIG     C9  637   1.928   4.843  -0.638 -0.2128 -0.3392 -0.0762
   17LIG    C10  638   1.904   4.746  -0.754 -0.1160  0.7334  0.5341
   17LIG    C11  639   1.788   4.649  -0.735  0.7736 -0.2234 -0.1080
   17LIG      S  640   1.790   4.551  -0.588 -0.2850 -0.1705 -0.1693
   17LIG     O3  641   1.684   4.453  -0.617  0.1245  0.3751 -0.2869
   17LIG     O4  642   1.924   4.489  -0.590  0.4772  0.9588  0.5019
   17LIG     O5  643   1.771   4.639  -0.472 -0.7160  0.2221  0.1305
   17LIG     H5  644   2.618   5.112  -0.442  0.1864 -1.3409 -0.5679
   17LIG     H7  645   2.666   5.254  -0.562  1.1773 -0.4947  0.2737
   17LIG     H1  646   2.251   5.239  -0.455  0.4660  0.4976  1.3109
   17LIG     H3  647   2.405   5.275  -0.373 -1.8069 -0.2498  2.3241
   17LIG     H2  648   2.356   5.100  -0.383 -0.1175 -0.8491 -1.0166
   17LIG     H8  649   2.193   5.119  -0.908 -1.0557 -0.2656  0.4269
   17LIG     H9  650   2.266   4.971  -0.844  3.5333  0.1813  4.7510
   17LIG    H10  651   1.995   5.081  -0.753 -0.4825  0.4371  0.9393
   17LIG    H11  652   2.029   4.931  -0.846  0.6880  1.9763 -1.2617
   17LIG    H12  653   2.152   5.044  -0.504 -0.8555 -0.1793  0.3220
   17LIG    H13  654   1.977   5.080  -0.530  0.2021  0.5151 -1.0074
   17LIG    H14  655   2.039   4.944  -0.424 -1.2431 -0.2795  0.0074
   17LIG    H15  656   2.156   4.761  -0.728 -3.1729  0.9319 -1.0561
   17LIG    H16  657   2.266   4.866  -0.657  0.0432 -0.8209  1.6557
   17LIG    H17  658   2.169   4.760  -0.545 -2.0091  0.1216 -0.1276
   17LIG    H18  659   1.915   4.797  -0.542 -0.7255 -0.2411 -0.0935
   17LIG    H19  660   1.849   4.917  -0.646 -0.9426 -1.0724  0.1596
   17LIG    H20  661   1.877   4.791  -0.852 -0.2508 -0.9329 -0.2209
   17LIG    H21  662   1.989   4.679  -0.776  0.3927  1.8109 -0.9203
   17LIG    H22  663   1.685   4.691  -0.738 -0.5695 -3.1900  1.2177
   17LIG    H23  664   1.808   4.571  -0.811 -1.7661 -1.0377 -0.0294
   18LIG     C1  665   2.435   5.272  -0.696 -0.8607 -0.1332  0.0601
   18LIG     C2  666   2.455   5.429  -0.689  0.4396  0.5516 -0.2617
   18LIG     C3  667   2.465   5.479  -0.541 -0.0070  0.3341  0.1042
   18LIG     C4  668   2.566   5.485  -0.788 -0.0442  0.9698  0.6137
   18LIG     O1  669   2.660   5.427  -0.840  0.3655 -0.6629  0.5320
   18LIG     O2  670   2.541   5.620  -0.802  0.2375 -0.3283  0.0418
   18LIG     C5  671   2.647   5.699  -0.857 -0.0897  0.3808  0.3561
   18LIG     C6  672   2.651   5.821  -0.765  0.8470  0.2701 -0.1795
   18LIG      N  673   2.754   5.926  -0.784  0.0136 -0.3490 -0.9430
   18LIG     C7  674   2.878   5.886  -0.720 -0.5281  0.0114 -0.6898
   18LIG     C8  675   2.770   5.978  -0.929 -0.5828  0.1685  0.2875
   18LIG     C9  676   2.697   6.047  -0.706 -0.1116  0.6957 -0.1177
   18LIG    C10  677   2.771   6.189  -0.704  0.3417  0.7076 -0.0695
   18LIG    C11  678   2.738   6.260  -0.572 -0.1547 -0.2788 -0.0615
   18LIG      S  679   2.596   6.373  -0.583 -0.1288 -0.3592  0.1418
   18LIG     O3  680   2.626   6.452  -0.697 -0.4569  0.6227  0.6009
   18LIG     O4  681   2.600   6.448  -0.459  0.1372 -0.2672  0.1419
   18LIG     O5  682   2.481   6.295  -0.597 -0.0713 -0.1024 -1.1433
   18LIG     H5  683   2.479   5.222  -0.784  0.9192  1.1681  0.1562
   18LIG     H7  684   2.446   5.214  -0.602  2.8597 -0.2955 -0.3212
   18LIG     H1  685   2.546   5.420  -0.494  0.7070 -0.0327 -1.5395
   18LIG     H3  686   2.506   5.582  -0.543 -1.5481  0.9804 -0.7142
   18LIG     H2  687   2.370   5.473  -0.483 -0.5011 -1.6863 -0.8255
   18LIG     H8  688   2.617   5.726  -0.960 -0.5616  1.8219  0.8414
   18LIG     H9  689   2.745   5.648  -0.853 -0.2519 -0.2119 -2.0175
   18LIG    H10  690   2.662   5.788  -0.663  0.5871  0.8215  0.0307
   18LIG    H11  691   2.554   5.866  -0.775  1.0142  1.4194  2.4558
   18LIG    H12  692   2.873   5.853  -0.618 -1.8075 -1.8119 -1.2928
   18LIG    H13  693   2.955   5.961  -0.716 -0.0168 -0.4714 -1.2695
   18LIG    H14  694   2.917   5.795  -0.764  2.1831 -0.0036  1.4710
   18LIG    H15  695   2.858   6.041  -0.934  0.3317 -1.1462 -1.1144
   18LIG    H16  696   2.681   6.027  -0.963 -0.1843  0.8582  0.2283
   18LIG    H17  697   2.793   5.890  -0.988  1.5765  0.5122  0.5356
   18LIG    H18  698   2.673   6.028  -0.602 -1.8455 -0.4260 -0.6674
   18LIG    H19  699   2.599   6.064  -0.748  0.8306 -0.6593 -3.1432
   18LIG    H20  700   2.743   6.247  -0.794  1.2917  1.8447  0.3346
   18LIG    H21  701   2.880   6.165  -0.707  0.1854  0.0268 -0.4268
   18LIG    H22  702   2.824   6.327  -0.551  0.0680  0.8546 -3.8423
   18LIG    H23  703   2.721   6.191  -0.487  3.5699  0.3223  1.3612
   19LIG     C1  704   2.394   5.498  -0.809 -0.2303 -0.7017  0.4636
   19LIG     C2  705   2.242   5.540  -0.804 -0.7930  0.7434  0.3316
   19LIG     C3  706   2.158   5.409  -0.766 -0.6247  0.2730 -0.2260
   19LIG     C4  707   2.190   5.601  -0.938  0.0531 -0.0790 -0.0187
   19LIG     O1  708   2.264   5.628  -1.032 -0.6371  0.2272  0.4276
   19LIG     O2  709   2.063   5.618  -0.927 -0.1669  0.0076 -0.1271
   19LIG     C5  710   2.009   5.695  -1.040  0.4000  0.5106  0.2308
   19LIG     C6  711   1.883   5.634  -1.099  0.2285  0.5727  0.2430
   19LIG      N  712   1.759   5.601  -1.010 -0.7806  0.1602 -0.0725
   19LIG     C7  713   1.647   5.547  -1.091  0.3948 -0.1203 -0.2182
   19LIG     C8  714   1.705   5.734  -0.962  0.1382  0.0527  0.5100
   19LIG     C9  715   1.800   5.506  -0.902  0.2561  0.8219 -0.3262
   19LIG    C10  716   1.700   5.496  -0.789 -0.3392  0.2074  0.4595
   19LIG    C11  717   1.749   5.382  -0.704 -0.1230 -0.1543  0.0596
   19LIG      S  718   1.755   5.223  -0.787  0.6518 -0.1868  0.0460
   19LIG     O3  719   1.783   5.137  -0.672  0.3570 -0.0273  0.7526
   19LIG     O4  720   1.622   5.206  -0.844  0.1891  0.2649  0.2963
   19LIG     O5  721   1.859   5.215  -0.886  0.1719  0.1409  0.0144
   19LIG     H5  722   2.414   5.443  -0.903 -3.2129  1.7607 -1.7777
   19LIG     H7  723   2.418   5.429  -0.725 -3.9083 -0.9291  1.4781
   19LIG     H1  724   2.048   5.424  -0.759 -0.7978 -0.5626 -1.0023
   19LIG     H3  725   2.198   5.383  -0.666 -1.5324  0.0551  0.0883
   19LIG     H2  726   2.184   5.341  -0.850 -0.0118  0.3801 -0.1314
   19LIG     H8  727   1.988   5.794  -0.995  0.9770  2.8646 -4.1148
   19LIG     H9  728   2.079   5.717  -1.123  1.1687  0.3725  0.8378
   19LIG    H10  729   1.856   5.699  -1.181 -0.7318  1.5669  1.2989
   19LIG    H11  730   1.912   5.538  -1.139  0.7539  0.7181  0.2649
   19LIG    H12  731   1.566   5.524  -1.023  0.0802  2.3456  0.3495
   19LIG    H13  732   1.613   5.621  -1.162 -1.8213 -2.6026 -1.9341
   19LIG    H14  733   1.669   5.457  -1.146 -1.4527 -0.0235 -1.2167
   19LIG    H15  734   1.602   5.725  -0.929  0.2349  1.8350  1.3943
   19LIG    H16  735   1.766   5.769  -0.881  0.1065 -0.9731  1.0044
   19LIG    H17  736   1.709   5.810  -1.038 -0.1157  0.5616  0.9971
   19LIG    H18  737   1.804   5.408  -0.946  0.1195  0.8028 -0.2952
   19LIG    H19  738   1.897   5.527  -0.859  0.0808 -0.3060  0.6747
   19LIG    H20  739   1.697   5.592  -0.733  0.5613 -0.1047  1.0656
   19LIG    H21  740   1.600   5.470  -0.829 -0.2330  1.2212 -0.4932
   19LIG    H22  741   1.853   5.413  -0.680  0.4552  1.0735 -3.5509
   19LIG    H23  742   1.697   5.375  -0.606 -0.0941 -1.3373  0.0052
   20LIG     C1  743   2.237   5.679  -0.742 -0.0823  0.7744  0.0927
   20LIG     C2  744   2.181   5.756  -0.617 -0.4996 -0.3233  0.0943
   20LIG     C3  745   2.187   5.668  -0.485 -0.2806 -0.4620 -0.0446
   20LIG     C4  746   2.277   5.875  -0.584  0.2125  0.3263 -0.6540
   20LIG     O1  747   2.394   5.881  -0.619 -0.1706  0.0149  0.7110
   20LIG     O2  748   2.213   5.960  -0.510 -0.0560 -0.4446 -0.5740
   20LIG     C5  749   2.301   6.071  -0.457 -0.3478  0.4090  0.4647
   20LIG     C6  750   2.220   6.203  -0.432  0.3193 -0.0378  0.2825
   20LIG      N  751   2.112   6.208  -0.324  0.2737 -0.0473  0.6461
   20LIG     C7  752   2.004   6.100  -0.346 -0.3839 -0.3082 -0.6699
   20LIG     C8  753   2.030   6.335  -0.334  0.3842  0.0330 -0.0606
   20LIG     C9  754   2.189   6.199  -0.192 -0.0110 -0.6363  0.6814
   20LIG    C10  755   2.304   6.304  -0.173 -0.7479 -0.1867  0.0091
   20LIG    C11  756   2.397   6.276  -0.051  0.3590 -0.5140  0.3935
   20LIG      S  757   2.487   6.118  -0.086 -0.0093 -0.1676 -0.0937
   20LIG     O3  758   2.568   6.100   0.032 -0.3477 -0.2514  0.2592
   20LIG     O4  759   2.388   6.014  -0.095  0.3122  0.3067  0.6457
   20LIG     O5  760   2.563   6.137  -0.205  0.3749 -0.2654 -0.0801
   20LIG     H5  761   2.261   5.742  -0.831  1.7029 -1.0065 -0.7594
   20LIG     H7  762   2.229   5.570  -0.761 -2.2780  1.0829 -1.1197
   20LIG     H1  763   2.099   5.680  -0.418  1.5788 -0.4371  2.5167
   20LIG     H3  764   2.182   5.563  -0.522 -0.4202  0.0640 -1.6086
   20LIG     H2  765   2.283   5.686  -0.432  0.5248 -1.6678 -1.0292
   20LIG     H8  766   2.345   6.038  -0.361 -0.8392 -1.1328  0.1830
   20LIG     H9  767   2.393   6.093  -0.515  0.1031 -0.3824  0.8650
   20LIG    H10  768   2.284   6.288  -0.418 -1.0799  1.0845  0.0539
   20LIG    H11  769   2.174   6.226  -0.527 -0.3086  2.8042  1.1763
   20LIG    H12  770   1.944   6.092  -0.257  0.6078 -0.6445 -0.0094
   20LIG    H13  771   1.946   6.124  -0.434 -0.8071  0.5996 -0.1558
   20LIG    H14  772   2.046   6.001  -0.359 -0.8913 -0.8239  1.3330
   20LIG    H15  773   1.994   6.337  -0.436 -0.9125 -2.1445  0.2965
   20LIG    H16  774   1.943   6.336  -0.270  0.7415  1.4177  0.4410
   20LIG    H17  775   2.083   6.427  -0.314  0.9030  0.2421 -2.1625
   20LIG    H18  776   2.124   6.208  -0.106 -0.4980 -3.0225  0.6300
   20LIG    H19  777   2.233   6.101  -0.179 -0.0139 -0.6940  0.2644
   20LIG    H20  778   2.369   6.322  -0.261  1.2073 -0.6494  1.3121
   20LIG    H21  779   2.258   6.402  -0.145  1.2944  0.0817  2.8720
   20LIG    H22  780   2.474   6.353  -0.029  0.6147 -1.0980  1.6220
   20LIG    H23  781   2.341   6.256   0.043 -0.0624 -0.0230  0.2528
   20LIG    BR1  782   2.001   5.808  -0.660  0.0338  0.1254 -0.2565
   7.60323   7.60323   7.60323
