pp polymer (water removed) t= 100.000
  182
    1PROR    C1    1   3.744   3.194   3.844
    1PROR   H11    2   3.761   3.292   3.893
    1PROR   H12    3   3.827   3.164   3.777
    1PROR   H13    4   3.650   3.213   3.788
    1PROR    C2    5   3.730   3.085   3.952
    1PROR   H21    6   3.830   3.080   4.000
    1PROR    C3    7   3.623   3.118   4.065
    1PROR   H31    8   3.613   3.042   4.145
    1PROR   H32    9   3.661   3.214   4.107
    1PROR   H33   10   3.521   3.127   4.023
    2PROR    C1   11   3.709   2.943   3.893
    2PROR   H11   12   3.799   2.917   3.834
    2PROR   H13   13   3.699   2.871   3.977
    2PROR    C2   14   3.582   2.927   3.803
    2PROR   H21   15   3.505   2.994   3.848
    2PROR    C3   16   3.611   2.969   3.655
    2PROR   H31   17   3.517   2.960   3.596
    2PROR   H32   18   3.638   3.075   3.640
    2PROR   H33   19   3.694   2.912   3.608
    3PROR    C1   20   3.544   2.785   3.796
    3PROR   H11   21   3.474   2.765   3.712
    3PROR   H13   22   3.636   2.724   3.784
    3PROR    C2   23   3.475   2.729   3.919
    3PROR   H21   24   3.504   2.799   4.000
    3PROR    C3   25   3.318   2.759   3.909
    3PROR   H31   26   3.274   2.743   4.010
    3PROR   H32   27   3.305   2.862   3.871
    3PROR   H33   28   3.266   2.691   3.838
    4PROR    C1   29   3.518   2.582   3.961
    4PROR   H11   30   3.609   2.593   4.023
    4PROR   H13   31   3.436   2.550   4.028
    4PROR    C2   32   3.540   2.476   3.850
    4PROR   H21   33   3.552   2.534   3.756
    4PROR    C3   34   3.668   2.400   3.876
    4PROR   H31   35   3.756   2.467   3.872
    4PROR   H32   36   3.670   2.359   3.979
    4PROR   H33   37   3.672   2.319   3.800
    5PROR    C1   38   3.415   2.380   3.831
    5PROR   H11   39   3.430   2.301   3.908
    5PROR   H13   40   3.324   2.436   3.862
    5PROR    C2   41   3.394   2.330   3.685
    5PROR   H21   42   3.490   2.354   3.634
    5PROR    C3   43   3.392   2.171   3.685
    5PROR   H31   44   3.489   2.136   3.725
    5PROR   H32   45   3.301   2.130   3.734
    5PROR   H33   46   3.388   2.131   3.581
    6PROR    C1   47   3.268   2.381   3.613
    6PROR   H11   48   3.184   2.345   3.676
    6PROR   H13   49   3.264   2.492   3.612
    6PROR    C2   50   3.233   2.333   3.473
    6PROR   H21   51   3.217   2.223   3.478
    6PROR    C3   52   3.095   2.392   3.425
    6PROR   H31   53   3.011   2.357   3.490
    6PROR   H32   54   3.103   2.502   3.416
    6PROR   H33   55   3.072   2.346   3.326
    7PROS    C1   56   3.337   2.352   3.357
    7PROS   H11   57   3.426   2.289   3.380
    7PROS   H13   58   3.292   2.315   3.262
    7PROS    C2   59   3.376   2.497   3.316
    7PROS   H21   60   3.295   2.573   3.320
    7PROS    C3   61   3.488   2.563   3.408
    7PROS   H31   62   3.457   2.561   3.515
    7PROS   H32   63   3.584   2.509   3.394
    7PROS   H33   64   3.502   2.671   3.384
    8PROS    C1   65   3.439   2.496   3.175
    8PROS   H11   66   3.517   2.574   3.183
    8PROS   H13   67   3.498   2.403   3.158
    8PROS    C2   68   3.343   2.539   3.070
    8PROS   H21   69   3.257   2.479   3.107
    8PROS    C3   70   3.299   2.685   3.081
    8PROS   H31   71   3.232   2.699   3.169
    8PROS   H32   72   3.385   2.755   3.088
    8PROS   H33   73   3.246   2.715   2.988
    9PROR    C1   74   3.376   2.508   2.917
    9PROR   H11   75   3.396   2.400   2.903
    9PROR   H13   76   3.282   2.535   2.863
    9PROR    C2   77   3.495   2.589   2.851
    9PROR   H21   78   3.496   2.693   2.892
    9PROR    C3   79   3.627   2.529   2.903
    9PROR   H31   80   3.638   2.426   2.865
    9PROR   H32   81   3.703   2.599   2.863
    9PROR   H33   82   3.635   2.528   3.014
   10PROS    C1   83   3.491   2.587   2.699
   10PROS   H11   84   3.408   2.520   2.668
   10PROS   H13   85   3.589   2.556   2.657
   10PROS    C2   86   3.452   2.725   2.631
   10PROS   H21   87   3.453   2.709   2.521
   10PROS    C3   88   3.316   2.774   2.680
   10PROS   H31   89   3.237   2.698   2.700
   10PROS   H32   90   3.338   2.833   2.771
   10PROS   H33   91   3.270   2.851   2.615
   11PROR    C1   92   3.563   2.833   2.661
   11PROR   H11   93   3.578   2.840   2.771
   11PROR   H13   94   3.651   2.783   2.615
   11PROR    C2   95   3.536   2.967   2.594
   11PROR   H21   96   3.439   3.012   2.627
   11PROR    C3   97   3.650   3.056   2.636
   11PROR   H31   98   3.610   3.160   2.640
   11PROR   H32   99   3.692   3.029   2.735
   11PROR   H33  100   3.737   3.057   2.567
   12PROS    C1  101   3.536   2.953   2.440
   12PROS   H11  102   3.625   2.899   2.400
   12PROS   H13  103   3.443   2.903   2.407
   12PROS    C2  104   3.533   3.086   2.367
   12PROS   H21  105   3.628   3.138   2.393
   12PROS    C3  106   3.543   3.065   2.219
   12PROS   H31  107   3.574   3.158   2.165
   12PROS   H32  108   3.607   2.982   2.182
   12PROS   H33  109   3.442   3.041   2.179
   13PROR    C1  110   3.415   3.178   2.410
   13PROR   H11  111   3.408   3.181   2.521
   13PROR   H13  112   3.443   3.286   2.410
   13PROR    C2  113   3.274   3.161   2.336
   13PROR   H21  114   3.286   3.175   2.226
   13PROR    C3  115   3.214   3.021   2.357
   13PROR   H31  116   3.106   3.022   2.332
   13PROR   H32  117   3.264   2.946   2.292
   13PROR   H33  118   3.226   2.988   2.463
   14PROS    C1  119   3.183   3.282   2.385
   14PROS   H11  120   3.244   3.368   2.347
   14PROS   H13  121   3.201   3.293   2.494
   14PROS    C2  122   3.035   3.291   2.331
   14PROS   H21  123   3.020   3.399   2.353
   14PROS    C3  124   3.024   3.258   2.181
   14PROS   H31  125   3.052   3.154   2.151
   14PROS   H32  126   2.923   3.283   2.145
   14PROS   H33  127   3.099   3.321   2.129
   15PROR    C1  128   2.919   3.223   2.412
   15PROR   H11  129   2.820   3.261   2.382
   15PROR   H13  130   2.918   3.116   2.382
   15PROR    C2  131   2.936   3.219   2.571
   15PROR   H21  132   3.037   3.179   2.593
   15PROR    C3  133   2.944   3.358   2.627
   15PROR   H31  134   2.875   3.434   2.584
   15PROR   H32  135   2.942   3.346   2.738
   15PROR   H33  136   3.044   3.401   2.603
   16PROS    C1  137   2.827   3.132   2.653
   16PROS   H11  138   2.804   3.197   2.741
   16PROS   H13  139   2.736   3.113   2.591
   16PROS    C2  140   2.885   2.999   2.699
   16PROS   H21  141   2.810   2.961   2.772
   16PROS    C3  142   2.883   2.887   2.592
   16PROS   H31  143   2.797   2.900   2.522
   16PROS   H32  144   2.980   2.895   2.538
   16PROS   H33  145   2.868   2.790   2.644
   17PROR    C1  146   3.015   2.997   2.782
   17PROR   H11  147   3.052   2.892   2.771
   17PROR   H13  148   3.089   3.056   2.723
   17PROR    C2  149   3.007   3.042   2.931
   17PROR   H21  150   2.930   3.123   2.931
   17PROR    C3  151   2.962   2.924   3.017
   17PROR   H31  152   2.938   2.957   3.120
   17PROR   H32  153   2.878   2.879   2.959
   17PROR   H33  154   3.047   2.853   3.019
   18PROS    C1  155   3.147   3.103   2.990
   18PROS   H11  156   3.211   3.014   2.975
   18PROS   H13  157   3.140   3.114   3.100
   18PROS    C2  158   3.187   3.238   2.929
   18PROS   H21  159   3.143   3.238   2.827
   18PROS    C3  160   3.123   3.363   2.993
   18PROS   H31  161   3.015   3.340   2.977
   18PROS   H32  162   3.155   3.372   3.099
   18PROS   H33  163   3.151   3.455   2.938
   19PROS    C1  164   3.345   3.255   2.913
   19PROS   H11  165   3.384   3.196   2.827
   19PROS   H13  166   3.367   3.361   2.889
   19PROS    C2  167   3.439   3.217   3.029
   19PROS   H21  168   3.530   3.281   3.017
   19PROS    C3  169   3.390   3.263   3.175
   19PROS   H31  170   3.460   3.221   3.251
   19PROS   H32  171   3.382   3.374   3.177
   19PROS   H33  172   3.295   3.207   3.186
   20PROS    C1  173   3.482   3.062   3.029
   20PROS   H11  174   3.402   3.000   3.074
   20PROS   H13  175   3.488   3.022   2.926
   20PROS    C2  176   3.610   3.031   3.111
   20PROS   H21  177   3.593   3.047   3.220
   20PROS   H22  178   3.685   3.106   3.078
   20PROS    C3  179   3.666   2.889   3.102
   20PROS   H31  180   3.597   2.822   3.158
   20PROS   H32  181   3.665   2.859   2.995
   20PROS   H33  182   3.766   2.887   3.150
   7.19707   7.19707   7.19707
