ps polymer (water removed) t= 100.000
  322
    1STYRR   C1    1   3.703   4.259   2.185
    1STYRR  H11    2   3.605   4.211   2.169
    1STYRR  H12    3   3.678   4.363   2.213
    1STYRR  H13    4   3.766   4.264   2.093
    1STYRR   C2    5   3.763   4.179   2.302
    1STYRR  H21    6   3.756   4.075   2.266
    1STYRR   C3    7   3.906   4.224   2.321
    1STYRR   C4    8   3.925   4.362   2.329
    1STYRR  H41    9   3.842   4.429   2.345
    1STYRR   C5   10   4.055   4.419   2.317
    1STYRR  H51   11   4.068   4.526   2.316
    1STYRR   C6   12   4.163   4.334   2.311
    1STYRR  H61   13   4.263   4.374   2.311
    1STYRR   C7   14   4.145   4.196   2.298
    1STYRR  H71   15   4.232   4.133   2.292
    1STYRR   C8   16   4.015   4.136   2.297
    1STYRR  H81   17   3.998   4.030   2.308
    2STYRS   C1   18   3.691   4.195   2.437
    2STYRS  H11   19   3.762   4.147   2.508
    2STYRS  H13   20   3.687   4.305   2.451
    2STYRS   C2   21   3.546   4.135   2.445
    2STYRS  H21   22   3.492   4.176   2.358
    2STYRS   C3   23   3.471   4.187   2.566
    2STYRS   C4   24   3.335   4.161   2.577
    2STYRS  H41   25   3.288   4.100   2.501
    2STYRS   C5   26   3.251   4.227   2.675
    2STYRS  H51   27   3.146   4.201   2.670
    2STYRS   C6   28   3.313   4.307   2.771
    2STYRS  H61   29   3.265   4.348   2.858
    2STYRS   C7   30   3.455   4.325   2.770
    2STYRS  H71   31   3.490   4.387   2.852
    2STYRS   C8   32   3.528   4.264   2.671
    2STYRS  H81   33   3.635   4.279   2.669
    3STYRR   C1   34   3.549   3.976   2.433
    3STYRR  H11   35   3.457   3.938   2.383
    3STYRR  H13   36   3.633   3.955   2.362
    3STYRR   C2   37   3.552   3.902   2.568
    3STYRR  H21   38   3.456   3.924   2.619
    3STYRR   C3   39   3.574   3.748   2.544
    3STYRR   C4   40   3.686   3.715   2.467
    3STYRR  H41   41   3.765   3.789   2.457
    3STYRR   C5   42   3.712   3.580   2.437
    3STYRR  H51   43   3.801   3.543   2.388
    3STYRR   C6   44   3.613   3.484   2.471
    3STYRR  H61   45   3.623   3.381   2.440
    3STYRR   C7   46   3.501   3.522   2.543
    3STYRR  H71   47   3.424   3.447   2.555
    3STYRR   C8   48   3.483   3.651   2.584
    3STYRR  H81   49   3.389   3.681   2.629
    4STYRS   C1   50   3.669   3.948   2.672
    4STYRS  H11   51   3.764   3.947   2.614
    4STYRS  H13   52   3.648   4.055   2.693
    4STYRS   C2   53   3.688   3.875   2.807
    4STYRS  H21   54   3.757   3.789   2.796
    4STYRS   C3   55   3.554   3.824   2.856
    4STYRS   C4   56   3.527   3.696   2.899
    4STYRS  H41   57   3.605   3.623   2.883
    4STYRS   C5   58   3.399   3.654   2.937
    4STYRS  H51   59   3.379   3.549   2.955
    4STYRS   C6   60   3.297   3.744   2.935
    4STYRS  H61   61   3.195   3.713   2.952
    4STYRS   C7   62   3.320   3.881   2.910
    4STYRS  H71   63   3.236   3.946   2.927
    4STYRS   C8   64   3.449   3.922   2.879
    4STYRS  H81   65   3.466   4.028   2.865
    5STYRR   C1   66   3.744   3.967   2.918
    5STYRR  H11   67   3.751   3.911   3.013
    5STYRR  H13   68   3.682   4.057   2.939
    5STYRR   C2   69   3.883   4.030   2.874
    5STYRR  H21   70   3.902   3.987   2.773
    5STYRR   C3   71   3.896   4.183   2.871
    5STYRR   C4   72   3.939   4.249   2.749
    5STYRR  H41   73   3.951   4.187   2.662
    5STYRR   C5   74   3.942   4.392   2.741
    5STYRR  H51   75   3.975   4.433   2.647
    5STYRR   C6   76   3.907   4.471   2.853
    5STYRR  H61   77   3.909   4.577   2.832
    5STYRR   C7   78   3.879   4.404   2.972
    5STYRR  H71   79   3.857   4.461   3.061
    5STYRR   C8   80   3.862   4.262   2.984
    5STYRR  H81   81   3.831   4.224   3.080
    6STYRS   C1   82   3.997   3.980   2.969
    6STYRS  H11   83   3.959   3.964   3.072
    6STYRS  H13   84   4.076   4.054   2.993
    6STYRS   C2   85   4.076   3.856   2.912
    6STYRS  H21   86   4.172   3.854   2.968
    6STYRS   C3   87   4.109   3.871   2.767
    6STYRS   C4   88   4.219   3.950   2.730
    6STYRS  H41   89   4.280   3.997   2.806
    6STYRS   C5   90   4.253   3.977   2.594
    6STYRS  H51   91   4.336   4.038   2.561
    6STYRS   C6   92   4.175   3.917   2.495
    6STYRS  H61   93   4.208   3.927   2.392
    6STYRS   C7   94   4.078   3.825   2.532
    6STYRS  H71   95   4.014   3.776   2.461
    6STYRS   C8   96   4.040   3.807   2.662
    6STYRS  H81   97   3.954   3.744   2.681
    7STYRS   C1   98   4.020   3.718   2.943
    7STYRS  H11   99   3.913   3.709   2.914
    7STYRS  H13  100   4.072   3.643   2.880
    7STYRS   C2  101   4.032   3.677   3.093
    7STYRS  H21  102   4.007   3.767   3.152
    7STYRS   C3  103   4.179   3.628   3.110
    7STYRS   C4  104   4.272   3.711   3.168
    7STYRS  H41  105   4.240   3.812   3.192
    7STYRS   C5  106   4.404   3.679   3.185
    7STYRS  H51  107   4.477   3.749   3.224
    7STYRS   C6  108   4.447   3.550   3.142
    7STYRS  H61  109   4.542   3.507   3.170
    7STYRS   C7  110   4.358   3.468   3.076
    7STYRS  H71  111   4.402   3.375   3.042
    7STYRS   C8  112   4.222   3.505   3.058
    7STYRS  H81  113   4.161   3.430   3.010
    8STYRS   C1  114   3.936   3.566   3.156
    8STYRS  H11  115   3.977   3.465   3.132
    8STYRS  H13  116   3.833   3.574   3.114
    8STYRS   C2  117   3.944   3.577   3.307
    8STYRS  H21  118   4.044   3.615   3.336
    8STYRS   C3  119   3.907   3.448   3.380
    8STYRS   C4  120   3.998   3.383   3.458
    8STYRS  H41  121   4.084   3.438   3.493
    8STYRS   C5  122   3.961   3.259   3.515
    8STYRS  H51  123   4.023   3.202   3.582
    8STYRS   C6  124   3.835   3.199   3.482
    8STYRS  H61  125   3.801   3.103   3.519
    8STYRS   C7  126   3.752   3.264   3.394
    8STYRS  H71  127   3.659   3.223   3.358
    8STYRS   C8  128   3.787   3.389   3.336
    8STYRS  H81  129   3.717   3.449   3.281
    9STYRR   C1  130   3.841   3.689   3.355
    9STYRR  H11  131   3.836   3.776   3.286
    9STYRR  H13  132   3.741   3.643   3.364
    9STYRR   C2  133   3.877   3.754   3.491
    9STYRR  H21  134   3.926   3.671   3.546
    9STYRR   C3  135   3.963   3.871   3.473
    9STYRR   C4  136   4.099   3.865   3.516
    9STYRR  H41  137   4.141   3.772   3.549
    9STYRR   C5  138   4.184   3.976   3.491
    9STYRR  H51  139   4.288   3.971   3.520
    9STYRR   C6  140   4.132   4.090   3.432
    9STYRR  H61  141   4.187   4.183   3.423
    9STYRR   C7  142   3.999   4.089   3.381
    9STYRR  H71  143   3.953   4.168   3.323
    9STYRR   C8  144   3.910   3.986   3.407
    9STYRR  H81  145   3.811   3.985   3.363
   10STYRS   C1  146   3.751   3.799   3.564
   10STYRS  H11  147   3.775   3.886   3.629
   10STYRS  H13  148   3.689   3.839   3.481
   10STYRS   C2  149   3.682   3.680   3.634
   10STYRS  H21  150   3.672   3.609   3.549
   10STYRS   C3  151   3.773   3.624   3.741
   10STYRS   C4  152   3.819   3.694   3.848
   10STYRS  H41  153   3.792   3.798   3.854
   10STYRS   C5  154   3.897   3.637   3.948
   10STYRS  H51  155   3.936   3.700   4.026
   10STYRS   C6  156   3.925   3.499   3.940
   10STYRS  H61  157   3.996   3.457   4.010
   10STYRS   C7  158   3.872   3.426   3.831
   10STYRS  H71  159   3.889   3.319   3.836
   10STYRS   C8  160   3.794   3.486   3.730
   10STYRS  H81  161   3.750   3.428   3.651
   11STYRR   C1  162   3.549   3.706   3.686
   11STYRR  H11  163   3.553   3.805   3.737
   11STYRR  H13  164   3.514   3.626   3.755
   11STYRR   C2  165   3.427   3.716   3.591
   11STYRR  H21  166   3.335   3.714   3.654
   11STYRR   C3  167   3.425   3.848   3.515
   11STYRR   C4  168   3.431   3.850   3.370
   11STYRR  H41  169   3.456   3.764   3.311
   11STYRR   C5  170   3.402   3.972   3.307
   11STYRR  H51  171   3.401   3.979   3.200
   11STYRR   C6  172   3.361   4.085   3.380
   11STYRR  H61  173   3.334   4.174   3.324
   11STYRR   C7  174   3.348   4.073   3.519
   11STYRR  H71  175   3.315   4.155   3.581
   11STYRR   C8  176   3.384   3.956   3.589
   11STYRR  H81  177   3.364   3.935   3.693
   12STYRS   C1  178   3.424   3.589   3.489
   12STYRS  H11  179   3.333   3.606   3.427
   12STYRS  H13  180   3.514   3.585   3.424
   12STYRS   C2  181   3.402   3.438   3.546
   12STYRS  H21  182   3.494   3.423   3.607
   12STYRS   C3  183   3.404   3.327   3.436
   12STYRS   C4  184   3.402   3.191   3.482
   12STYRS  H41  185   3.414   3.173   3.588
   12STYRS   C5  186   3.406   3.092   3.387
   12STYRS  H51  187   3.413   2.987   3.408
   12STYRS   C6  188   3.396   3.123   3.246
   12STYRS  H61  189   3.391   3.041   3.176
   12STYRS   C7  190   3.397   3.255   3.208
   12STYRS  H71  191   3.370   3.271   3.104
   12STYRS   C8  192   3.400   3.361   3.298
   12STYRS  H81  193   3.383   3.461   3.260
   13STYRS   C1  194   3.287   3.438   3.650
   13STYRS  H11  195   3.286   3.343   3.706
   13STYRS  H13  196   3.311   3.515   3.727
   13STYRS   C2  197   3.150   3.471   3.589
   13STYRS  H21  198   3.172   3.496   3.483
   13STYRS   C3  199   3.083   3.594   3.649
   13STYRS   C4  200   3.036   3.592   3.783
   13STYRS  H41  201   3.033   3.501   3.840
   13STYRS   C5  202   2.984   3.710   3.840
   13STYRS  H51  203   2.967   3.703   3.946
   13STYRS   C6  204   2.971   3.825   3.762
   13STYRS  H61  205   2.922   3.905   3.815
   13STYRS   C7  206   3.021   3.832   3.626
   13STYRS  H71  207   2.988   3.915   3.565
   13STYRS   C8  208   3.074   3.716   3.576
   13STYRS  H81  209   3.107   3.720   3.473
   14STYRR   C1  210   3.049   3.350   3.605
   14STYRR  H11  211   3.127   3.271   3.607
   14STYRR  H13  212   2.986   3.350   3.696
   14STYRR   C2  213   2.966   3.299   3.483
   14STYRR  H21  214   2.934   3.194   3.499
   14STYRR   C3  215   2.849   3.385   3.460
   14STYRR   C4  216   2.719   3.313   3.461
   14STYRR  H41  217   2.712   3.209   3.488
   14STYRR   C5  218   2.612   3.391   3.422
   14STYRR  H51  219   2.511   3.353   3.420
   14STYRR   C6  220   2.629   3.534   3.393
   14STYRR  H61  221   2.538   3.590   3.378
   14STYRR   C7  222   2.753   3.600   3.398
   14STYRR  H71  223   2.764   3.707   3.388
   14STYRR   C8  224   2.864   3.518   3.427
   14STYRR  H81  225   2.963   3.560   3.416
   15STYRR   C1  226   3.057   3.276   3.345
   15STYRR  H11  227   3.100   3.376   3.326
   15STYRR  H13  228   3.127   3.197   3.379
   15STYRR   C2  229   2.981   3.231   3.211
   15STYRR  H21  230   3.074   3.235   3.150
   15STYRR   C3  231   2.927   3.091   3.205
   15STYRR   C4  232   3.007   2.989   3.141
   15STYRR  H41  233   3.098   3.016   3.089
   15STYRR   C5  234   2.960   2.857   3.117
   15STYRR  H51  235   3.036   2.791   3.076
   15STYRR   C6  236   2.839   2.817   3.166
   15STYRR  H61  237   2.804   2.715   3.160
   15STYRR   C7  238   2.759   2.915   3.232
   15STYRR  H71  239   2.662   2.883   3.266
   15STYRR   C8  240   2.800   3.046   3.258
   15STYRR  H81  241   2.730   3.112   3.307
   16STYRS   C1  242   2.889   3.339   3.145
   16STYRS  H11  243   2.803   3.358   3.212
   16STYRS  H13  244   2.942   3.437   3.147
   16STYRS   C2  245   2.828   3.315   3.006
   16STYRS  H21  246   2.782   3.216   3.027
   16STYRS   C3  247   2.931   3.304   2.896
   16STYRS   C4  248   2.935   3.188   2.810
   16STYRS  H41  249   2.884   3.097   2.839
   16STYRS   C5  250   3.029   3.192   2.710
   16STYRS  H51  251   3.045   3.106   2.645
   16STYRS   C6  252   3.112   3.303   2.681
   16STYRS  H61  253   3.168   3.295   2.589
   16STYRS   C7  254   3.109   3.412   2.762
   16STYRS  H71  255   3.160   3.504   2.738
   16STYRS   C8  256   3.018   3.415   2.869
   16STYRS  H81  257   3.025   3.495   2.942
   17STYRR   C1  258   2.709   3.402   2.961
   17STYRR  H11  259   2.652   3.332   2.896
   17STYRR  H13  260   2.652   3.412   3.055
   17STYRR   C2  261   2.729   3.551   2.903
   17STYRR  H21  262   2.803   3.545   2.821
   17STYRR   C3  263   2.602   3.603   2.850
   17STYRR   C4  264   2.591   3.632   2.713
   17STYRR  H41  265   2.676   3.626   2.646
   17STYRR   C5  266   2.468   3.665   2.654
   17STYRR  H51  267   2.470   3.681   2.547
   17STYRR   C6  268   2.357   3.672   2.739
   17STYRR  H61  269   2.264   3.702   2.693
   17STYRR   C7  270   2.365   3.645   2.876
   17STYRR  H71  271   2.272   3.645   2.932
   17STYRR   C8  272   2.485   3.616   2.936
   17STYRR  H81  273   2.493   3.589   3.040
   18STYRR   C1  274   2.773   3.651   3.017
   18STYRR  H11  275   2.693   3.662   3.093
   18STYRR  H13  276   2.853   3.601   3.075
   18STYRR   C2  277   2.826   3.796   2.971
   18STYRR  H21  278   2.729   3.837   2.937
   18STYRR   C3  279   2.876   3.882   3.089
   18STYRR   C4  280   2.823   4.016   3.097
   18STYRR  H41  281   2.747   4.046   3.026
   18STYRR   C5  282   2.874   4.112   3.192
   18STYRR  H51  283   2.837   4.213   3.184
   18STYRR   C6  284   2.970   4.072   3.276
   18STYRR  H61  285   3.020   4.145   3.339
   18STYRR   C7  286   3.031   3.946   3.266
   18STYRR  H71  287   3.117   3.912   3.323
   18STYRR   C8  288   2.982   3.852   3.173
   18STYRR  H81  289   3.036   3.758   3.174
   19STYRS   C1  290   2.940   3.798   2.861
   19STYRS  H11  291   3.025   3.863   2.892
   19STYRS  H13  292   2.965   3.690   2.850
   19STYRS   C2  293   2.893   3.871   2.735
   19STYRS  H21  294   2.787   3.842   2.720
   19STYRS   C3  295   2.964   3.807   2.613
   19STYRS   C4  296   2.902   3.726   2.516
   19STYRS  H41  297   2.798   3.695   2.521
   19STYRS   C5  298   2.979   3.663   2.417
   19STYRS  H51  299   2.930   3.591   2.353
   19STYRS   C6  300   3.112   3.699   2.399
   19STYRS  H61  301   3.169   3.665   2.313
   19STYRS   C7  302   3.172   3.788   2.485
   19STYRS  H71  303   3.274   3.818   2.467
   19STYRS   C8  304   3.106   3.835   2.598
   19STYRS  H81  305   3.153   3.912   2.657
   20STYRS   C1  306   2.892   4.025   2.744
   20STYRS  H11  307   2.823   4.057   2.825
   20STYRS  H13  308   2.988   4.064   2.783
   20STYRS   C2  309   2.868   4.081   2.612
   20STYRS  H21  310   2.887   4.190   2.619
   20STYRS  H22  311   2.937   4.061   2.527
   20STYRS   C3  312   2.721   4.051   2.565
   20STYRS   C4  313   2.611   4.109   2.633
   20STYRS  H41  314   2.635   4.162   2.724
   20STYRS   C5  315   2.485   4.079   2.596
   20STYRS  H51  316   2.400   4.116   2.650
   20STYRS   C6  317   2.464   3.985   2.490
   20STYRS  H61  318   2.362   3.962   2.462
   20STYRS   C7  319   2.568   3.938   2.411
   20STYRS  H71  320   2.539   3.883   2.323
   20STYRS   C8  321   2.700   3.972   2.448
   20STYRS  H81  322   2.791   3.940   2.399
   6.85793   6.85793   6.85793
