pmma polymer (water removed) t= 100.000
  302
    1MMAS    C1    1   3.938   4.448   3.818
    1MMAS   H11    2   3.956   4.398   3.720
    1MMAS   H12    3   3.963   4.555   3.800
    1MMAS   H13    4   4.001   4.404   3.898
    1MMAS    C2    5   3.793   4.433   3.863
    1MMAS    C3    6   3.771   4.514   3.998
    1MMAS    O2    7   3.640   4.520   4.032
    1MMAS    O1    8   3.861   4.565   4.063
    1MMAS    C4    9   3.598   4.607   4.144
    1MMAS   H41   10   3.619   4.712   4.116
    1MMAS   H42   11   3.493   4.593   4.176
    1MMAS   H43   12   3.667   4.585   4.228
    1MMAS    C5   13   3.695   4.494   3.755
    1MMAS   H51   14   3.589   4.468   3.775
    1MMAS   H52   15   3.711   4.604   3.761
    1MMAS   H53   16   3.724   4.462   3.652
    2MMAS    C1   17   3.749   4.279   3.872
    2MMAS   H11   18   3.767   4.232   3.772
    2MMAS   H13   19   3.639   4.293   3.874
    2MMAS    C2   20   3.785   4.182   3.993
    2MMAS    C3   21   3.741   4.253   4.118
    2MMAS    O2   22   3.845   4.288   4.196
    2MMAS    O1   23   3.625   4.269   4.150
    2MMAS    C4   24   3.813   4.327   4.331
    2MMAS   H41   25   3.782   4.240   4.393
    2MMAS   H42   26   3.893   4.373   4.392
    2MMAS   H43   27   3.728   4.398   4.342
    2MMAS    C5   28   3.693   4.056   3.987
    2MMAS   H51   29   3.676   3.996   4.080
    2MMAS   H52   30   3.595   4.099   3.958
    2MMAS   H53   31   3.715   3.991   3.899
    3MMAS    C1   32   3.938   4.135   4.006
    3MMAS   H11   33   4.000   4.228   4.007
    3MMAS   H13   34   3.953   4.100   4.111
    3MMAS    C2   35   4.007   4.031   3.911
    3MMAS    C3   36   4.164   4.061   3.947
    3MMAS    O2   37   4.194   4.178   3.887
    3MMAS    O1   38   4.243   3.982   3.995
    3MMAS    C4   39   4.323   4.236   3.909
    3MMAS   H41   40   4.354   4.207   4.012
    3MMAS   H42   41   4.394   4.181   3.844
    3MMAS   H43   42   4.322   4.344   3.886
    3MMAS    C5   43   3.990   3.889   3.966
    3MMAS   H51   44   4.010   3.883   4.075
    3MMAS   H52   45   3.884   3.861   3.948
    3MMAS   H53   46   4.061   3.819   3.916
    4MMAR    C1   47   3.977   4.048   3.767
    4MMAR   H11   48   3.866   4.056   3.765
    4MMAR   H13   49   4.005   4.150   3.732
    4MMAR    C2   50   4.037   3.954   3.660
    4MMAR    C3   51   3.979   3.805   3.667
    4MMAR    O2   52   3.848   3.799   3.692
    4MMAR    O1   53   4.056   3.709   3.655
    4MMAR    C4   54   3.800   3.668   3.699
    4MMAR   H41   55   3.812   3.609   3.606
    4MMAR   H42   56   3.847   3.611   3.782
    4MMAR   H43   57   3.696   3.673   3.737
    4MMAR    C5   58   4.190   3.943   3.676
    4MMAR   H51   59   4.239   3.900   3.586
    4MMAR   H52   60   4.234   4.044   3.689
    4MMAR   H53   61   4.218   3.885   3.766
    5MMAR    C1   62   4.018   3.998   3.508
    5MMAR   H11   63   4.047   3.911   3.446
    5MMAR   H13   64   4.100   4.072   3.498
    5MMAR    C2   65   3.889   4.052   3.436
    5MMAR    C3   66   3.926   4.063   3.279
    5MMAR    O2   67   3.963   3.942   3.224
    5MMAR    O1   68   3.913   4.164   3.211
    5MMAR    C4   69   3.993   3.969   3.082
    5MMAR   H41   70   4.092   4.017   3.069
    5MMAR   H42   71   3.911   4.012   3.020
    5MMAR   H43   72   4.009   3.873   3.028
    5MMAR    C5   73   3.871   4.198   3.487
    5MMAR   H51   74   3.968   4.252   3.490
    5MMAR   H52   75   3.814   4.259   3.414
    5MMAR   H53   76   3.812   4.206   3.581
    6MMAS    C1   77   3.766   3.959   3.456
    6MMAS   H11   78   3.793   3.853   3.436
    6MMAS   H13   79   3.741   3.976   3.563
    6MMAS    C2   80   3.634   3.984   3.384
    6MMAS    C3   81   3.587   4.139   3.375
    6MMAS    O2   82   3.587   4.193   3.503
    6MMAS    O1   83   3.579   4.201   3.270
    6MMAS    C4   84   3.513   4.319   3.495
    6MMAS   H41   85   3.462   4.327   3.593
    6MMAS   H42   86   3.586   4.403   3.491
    6MMAS   H43   87   3.443   4.334   3.410
    6MMAS    C5   88   3.652   3.934   3.237
    6MMAS   H51   89   3.553   3.932   3.186
    6MMAS   H52   90   3.724   3.995   3.178
    6MMAS   H53   91   3.685   3.829   3.222
    7MMAR    C1   92   3.521   3.891   3.446
    7MMAR   H11   93   3.568   3.790   3.444
    7MMAR   H13   94   3.450   3.893   3.361
    7MMAR    C2   95   3.421   3.909   3.560
    7MMAR    C3   96   3.320   4.024   3.529
    7MMAR    O2   97   3.227   4.018   3.628
    7MMAR    O1   98   3.313   4.087   3.426
    7MMAR    C4   99   3.114   4.112   3.597
    7MMAR   H41  100   3.065   4.093   3.498
    7MMAR   H42  101   3.045   4.122   3.683
    7MMAR   H43  102   3.152   4.215   3.583
    7MMAR    C5  103   3.501   3.945   3.688
    7MMAR   H51  104   3.431   3.990   3.762
    7MMAR   H52  105   3.551   3.858   3.736
    7MMAR   H53  106   3.579   4.018   3.657
    8MMAR    C1  107   3.340   3.776   3.591
    8MMAR   H11  108   3.401   3.708   3.654
    8MMAR   H13  109   3.265   3.799   3.670
    8MMAR    C2  110   3.265   3.704   3.477
    8MMAR    C3  111   3.372   3.623   3.393
    8MMAR    O2  112   3.453   3.548   3.479
    8MMAR    O1  113   3.379   3.622   3.272
    8MMAR    C4  114   3.551   3.465   3.418
    8MMAR   H41  115   3.614   3.523   3.346
    8MMAR   H42  116   3.630   3.418   3.480
    8MMAR   H43  117   3.507   3.383   3.358
    8MMAR    C5  118   3.185   3.793   3.379
    8MMAR   H51  119   3.155   3.734   3.291
    8MMAR   H52  120   3.090   3.830   3.423
    8MMAR   H53  121   3.232   3.889   3.348
    9MMAR    C1  122   3.189   3.583   3.535
    9MMAR   H11  123   3.167   3.511   3.453
    9MMAR   H13  124   3.264   3.549   3.609
    9MMAR    C2  125   3.049   3.580   3.596
    9MMAR    C3  126   2.944   3.631   3.492
    9MMAR    O2  127   2.955   3.565   3.372
    9MMAR    O1  128   2.865   3.726   3.508
    9MMAR    C4  129   2.846   3.605   3.280
    9MMAR   H41  130   2.743   3.615   3.321
    9MMAR   H42  131   2.854   3.705   3.231
    9MMAR   H43  132   2.855   3.538   3.192
    9MMAR    C5  133   3.034   3.676   3.720
    9MMAR   H51  134   2.933   3.675   3.766
    9MMAR   H52  135   3.115   3.664   3.795
    9MMAR   H53  136   3.037   3.782   3.689
   10MMAS    C1  137   3.005   3.435   3.637
   10MMAS   H11  138   2.919   3.458   3.702
   10MMAS   H13  139   2.961   3.384   3.549
   10MMAS    C2  140   3.096   3.337   3.719
   10MMAS    C3  141   3.169   3.421   3.831
   10MMAS    O2  142   3.298   3.450   3.815
   10MMAS    O1  143   3.106   3.449   3.932
   10MMAS    C4  144   3.366   3.508   3.931
   10MMAS   H41  145   3.471   3.471   3.920
   10MMAS   H42  146   3.354   3.617   3.949
   10MMAS   H43  147   3.324   3.463   4.023
   10MMAS    C5  148   2.999   3.237   3.794
   10MMAS   H51  149   3.053   3.143   3.818
   10MMAS   H52  150   2.952   3.278   3.886
   10MMAS   H53  151   2.914   3.201   3.732
   11MMAS    C1  152   3.203   3.248   3.642
   11MMAS   H11  153   3.276   3.328   3.615
   11MMAS   H13  154   3.245   3.177   3.716
   11MMAS    C2  155   3.173   3.164   3.511
   11MMAS    C3  156   3.281   3.048   3.513
   11MMAS    O2  157   3.403   3.103   3.531
   11MMAS    O1  158   3.260   2.928   3.513
   11MMAS    C4  159   3.494   2.996   3.576
   11MMAS   H41  160   3.591   3.035   3.613
   11MMAS   H42  161   3.445   2.933   3.653
   11MMAS   H43  162   3.505   2.931   3.486
   11MMAS    C5  163   3.035   3.102   3.510
   11MMAS   H51  164   3.021   3.038   3.599
   11MMAS   H52  165   2.963   3.185   3.492
   11MMAS   H53  166   3.027   3.025   3.430
   12MMAS    C1  167   3.181   3.254   3.381
   12MMAS   H11  168   3.101   3.330   3.390
   12MMAS   H13  169   3.276   3.311   3.387
   12MMAS    C2  170   3.173   3.207   3.232
   12MMAS    C3  171   3.030   3.153   3.198
   12MMAS    O2  172   2.952   3.252   3.159
   12MMAS    O1  173   2.989   3.036   3.203
   12MMAS    C4  174   2.810   3.236   3.130
   12MMAS   H41  175   2.783   3.308   3.050
   12MMAS   H42  176   2.791   3.132   3.095
   12MMAS   H43  177   2.744   3.260   3.217
   12MMAS    C5  178   3.181   3.343   3.150
   12MMAS   H51  179   3.158   3.344   3.041
   12MMAS   H52  180   3.108   3.412   3.197
   12MMAS   H53  181   3.286   3.379   3.156
   13MMAR    C1  182   3.284   3.103   3.192
   13MMAR   H11  183   3.374   3.110   3.257
   13MMAR   H13  184   3.245   2.999   3.201
   13MMAR    C2  185   3.325   3.094   3.040
   13MMAR    C3  186   3.408   3.215   2.989
   13MMAR    O2  187   3.399   3.216   2.852
   13MMAR    O1  188   3.467   3.297   3.057
   13MMAR    C4  189   3.447   3.335   2.787
   13MMAR   H41  190   3.525   3.319   2.710
   13MMAR   H42  191   3.370   3.380   2.720
   13MMAR   H43  192   3.479   3.420   2.852
   13MMAR    C5  193   3.203   3.070   2.944
   13MMAR   H51  194   3.240   3.043   2.843
   13MMAR   H52  195   3.135   2.994   2.986
   13MMAR   H53  196   3.153   3.168   2.930
   14MMAR    C1  197   3.413   2.963   3.017
   14MMAR   H11  198   3.395   2.923   2.916
   14MMAR   H13  199   3.371   2.882   3.080
   14MMAR    C2  200   3.577   2.955   3.035
   14MMAR    C3  201   3.604   2.806   3.063
   14MMAR    O2  202   3.652   2.784   3.178
   14MMAR    O1  203   3.573   2.719   2.978
   14MMAR    C4  204   3.679   2.644   3.198
   14MMAR   H41  205   3.721   2.634   3.300
   14MMAR   H42  206   3.585   2.584   3.191
   14MMAR   H43  207   3.755   2.604   3.127
   14MMAR    C5  208   3.606   3.029   3.168
   14MMAR   H51  209   3.583   3.137   3.159
   14MMAR   H52  210   3.546   2.985   3.251
   14MMAR   H53  211   3.715   3.029   3.188
   15MMAR    C1  212   3.649   3.002   2.906
   15MMAR   H11  213   3.632   2.932   2.821
   15MMAR   H13  214   3.590   3.088   2.868
   15MMAR    C2  215   3.799   3.049   2.911
   15MMAR    C3  216   3.889   2.973   3.024
   15MMAR    O2  217   3.885   2.843   2.999
   15MMAR    O1  218   3.948   3.027   3.112
   15MMAR    C4  219   3.994   2.763   3.062
   15MMAR   H41  220   4.088   2.786   3.008
   15MMAR   H42  221   4.012   2.794   3.167
   15MMAR   H43  222   3.970   2.655   3.052
   15MMAR    C5  223   3.820   3.197   2.936
   15MMAR   H51  224   3.927   3.223   2.922
   15MMAR   H52  225   3.758   3.258   2.868
   15MMAR   H53  226   3.784   3.221   3.039
   16MMAS    C1  227   3.870   2.999   2.777
   16MMAS   H11  228   3.979   2.997   2.797
   16MMAS   H13  229   3.853   2.890   2.762
   16MMAS    C2  230   3.858   3.070   2.640
   16MMAS    C3  231   3.896   3.225   2.639
   16MMAS    O2  232   3.781   3.307   2.628
   16MMAS    O1  233   4.007   3.267   2.659
   16MMAS    C4  234   3.813   3.444   2.654
   16MMAS   H41  235   3.883   3.474   2.573
   16MMAS   H42  236   3.724   3.510   2.649
   16MMAS   H43  237   3.870   3.456   2.749
   16MMAS    C5  238   3.969   3.002   2.559
   16MMAS   H51  239   4.069   3.048   2.580
   16MMAS   H52  240   3.962   2.891   2.567
   16MMAS   H53  241   3.948   3.024   2.453
   17MMAS    C1  242   3.710   3.046   2.588
   17MMAS   H11  243   3.669   2.948   2.620
   17MMAS   H13  244   3.651   3.120   2.645
   17MMAS    C2  245   3.668   3.055   2.431
   17MMAS    C3  246   3.507   3.059   2.410
   17MMAS    O2  247   3.449   3.124   2.510
   17MMAS    O1  248   3.445   3.016   2.312
   17MMAS    C4  249   3.311   3.159   2.489
   17MMAS   H41  250   3.315   3.270   2.486
   17MMAS   H42  251   3.262   3.115   2.400
   17MMAS   H43  252   3.256   3.135   2.583
   17MMAS    C5  253   3.730   3.178   2.356
   17MMAS   H51  254   3.702   3.264   2.420
   17MMAS   H52  255   3.692   3.201   2.254
   17MMAS   H53  256   3.840   3.165   2.347
   18MMAS    C1  257   3.723   2.941   2.336
   18MMAS   H11  258   3.829   2.957   2.307
   18MMAS   H13  259   3.664   2.967   2.246
   18MMAS    C2  260   3.693   2.786   2.350
   18MMAS    C3  261   3.542   2.757   2.375
   18MMAS    O2  262   3.508   2.788   2.502
   18MMAS    O1  263   3.465   2.710   2.290
   18MMAS    C4  264   3.370   2.762   2.524
   18MMAS   H41  265   3.303   2.813   2.451
   18MMAS   H42  266   3.349   2.655   2.506
   18MMAS   H43  267   3.350   2.774   2.633
   18MMAS    C5  268   3.722   2.723   2.207
   18MMAS   H51  269   3.832   2.735   2.203
   18MMAS   H52  270   3.693   2.617   2.192
   18MMAS   H53  271   3.677   2.782   2.124
   19MMAR    C1  272   3.791   2.716   2.446
   19MMAR   H11  273   3.890   2.744   2.406
   19MMAR   H13  274   3.784   2.770   2.543
   19MMAR    C2  275   3.794   2.561   2.468
   19MMAR    C3  276   3.852   2.481   2.345
   19MMAR    O2  277   3.985   2.512   2.320
   19MMAR    O1  278   3.785   2.409   2.275
   19MMAR    C4  279   4.021   2.457   2.191
   19MMAR   H41  280   4.129   2.482   2.178
   19MMAR   H42  281   4.003   2.348   2.179
   19MMAR   H43  282   3.953   2.497   2.113
   19MMAR    C5  283   3.655   2.506   2.495
   19MMAR   H51  284   3.653   2.401   2.530
   19MMAR   H52  285   3.604   2.567   2.574
   19MMAR   H53  286   3.593   2.513   2.403
   20MMAR    C1  287   3.899   2.519   2.592
   20MMAR   H11  288   3.989   2.579   2.566
   20MMAR   H13  289   3.862   2.565   2.686
   20MMAR    C2  290   3.935   2.373   2.603
   20MMAR   H22  291   3.957   2.321   2.507
   20MMAR    C3  292   3.821   2.284   2.664
   20MMAR    O2  293   3.789   2.181   2.590
   20MMAR    O1  294   3.769   2.318   2.770
   20MMAR    C4  295   3.695   2.098   2.660
   20MMAR   H41  296   3.695   2.007   2.596
   20MMAR   H42  297   3.736   2.067   2.758
   20MMAR   H43  298   3.597   2.151   2.656
   20MMAR    C5  299   4.065   2.355   2.695
   20MMAR   H51  300   4.035   2.404   2.790
   20MMAR   H52  301   4.094   2.249   2.707
   20MMAR   H53  302   4.151   2.405   2.647
   6.95477   6.95477   6.95477
