* GENERATED BY CHARMM-GUI FF-Converter
* DATE:   05/14/26   20:31:39
*
     12208  EXT
         1         1  ETHOX     O1             -4.1441863542        6.1495496314        3.7841529306  S1P1      1               0.0000000000
         2         1  ETHOX     HO1            -4.0101521363        6.7591392286        4.5166885287  S1P1      1               0.0000000000
         3         1  ETHOX     C1             -2.7893697853        5.6457588231        3.4128402615  S1P1      1               0.0000000000
         4         1  ETHOX     H11            -2.0938008858        6.5298014456        3.0848408816  S1P1      1               0.0000000000
         5         1  ETHOX     H13            -2.2617424416        5.1197809530        4.3135958244  S1P1      1               0.0000000000
         6         1  ETHOX     C2             -2.7900758266        4.5433211027        2.1336098560  S1P1      1               0.0000000000
         7         1  ETHOX     H21            -3.4595097464        4.9495530469        1.2871989205  S1P1      1               0.0000000000
         8         1  ETHOX     H23            -1.7025564433        4.4773523317        1.7399879039  S1P1      1               0.0000000000
         9         2  ETHOX     O1             -3.2251291877        3.1435905751        2.5044085847  S1P1      2               0.0000000000
        10         2  ETHOX     C1             -4.6512057897        2.8511555280        2.9139570028  S1P1      2               0.0000000000
        11         2  ETHOX     H11            -5.3315627760        3.7422934603        2.6407772073  S1P1      2               0.0000000000
        12         2  ETHOX     H13            -5.0098271031        1.9221710404        2.3233063625  S1P1      2               0.0000000000
        13         2  ETHOX     C2             -4.8029283412        2.5172259833        4.5447975498  S1P1      2               0.0000000000
        14         2  ETHOX     H21            -4.0402525429        1.6975103431        4.8293812431  S1P1      2               0.0000000000
        15         2  ETHOX     H23            -5.8692814431        2.1159396183        4.7433687531  S1P1      2               0.0000000000
        16         3  ETHOX     O1             -4.5824288878        3.7378964800        5.4063128257  S1P1      3               0.0000000000
        17         3  ETHOX     C1             -4.2424349984        3.5995759918        6.8704104363  S1P1      3               0.0000000000
        18         3  ETHOX     H11            -4.4155016848        4.6332985756        7.3654416574  S1P1      3               0.0000000000
        19         3  ETHOX     H13            -4.9434125209        2.8324843298        7.3719634914  S1P1      3               0.0000000000
        20         3  ETHOX     C2             -2.6525409953        3.1576858422        7.1358598264  S1P1      3               0.0000000000
        21         3  ETHOX     H21            -2.0017092406        3.6365076314        6.3049253120  S1P1      3               0.0000000000
        22         3  ETHOX     H23            -2.5556421186        2.0108717860        7.0585390074  S1P1      3               0.0000000000
        23         4  ETHOX     O1             -2.1190354009        3.6337480493        8.4666858319  S1P1      4               0.0000000000
        24         4  ETHOX     C1             -2.4321694196        2.8728008463        9.7356792206  S1P1      4               0.0000000000
        25         4  ETHOX     H11            -2.2920435315        3.5987915548       10.6277817365  S1P1      4               0.0000000000
        26         4  ETHOX     H13            -3.5309307843        2.5205290948        9.7177447906  S1P1      4               0.0000000000
        27         4  ETHOX     C2             -1.4315062959        1.5575759615        9.9806039004  S1P1      4               0.0000000000
        28         4  ETHOX     H21            -0.3340120938        1.9004264449        9.8655980689  S1P1      4               0.0000000000
        29         4  ETHOX     H23            -1.5883439638        1.1750927597       11.0614794878  S1P1      4               0.0000000000
        30         5  ETHOX     O1             -1.7029213232        0.4157071903        9.0275679604  S1P1      5               0.0000000000
        31         5  ETHOX     C1             -0.7568114505       -0.7626218635        8.9685552277  S1P1      5               0.0000000000
        32         5  ETHOX     H11            -0.4396776371       -1.0462164663       10.0437206052  S1P1      5               0.0000000000
        33         5  ETHOX     H13            -1.3137204068       -1.6648172785        8.5070118427  S1P1      5               0.0000000000
        34         5  ETHOX     C2              0.6153148895       -0.4617720077        8.0642808181  S1P1      5               0.0000000000
        35         5  ETHOX     H21             1.2911211009       -1.4004427231        8.0993088277  S1P1      5               0.0000000000
        36         5  ETHOX     H23             1.1907058685        0.4195846757        8.5431842513  S1P1      5               0.0000000000
        37         6  ETHOX     O1              0.3374372888       -0.1205782315        6.6168163194  S1P1      6               0.0000000000
        38         6  ETHOX     C1             -0.2925833890       -1.1413845274        5.6980536829  S1P1      6               0.0000000000
        39         6  ETHOX     H11             0.1364740755       -0.9953926616        4.6326207290  S1P1      6               0.0000000000
        40         6  ETHOX     H13            -0.0132673752       -2.2041321762        6.0601612950  S1P1      6               0.0000000000
        41         6  ETHOX     C2             -1.9562237465       -1.0275931157        5.6077498104  S1P1      6               0.0000000000
        42         6  ETHOX     H21            -2.4039605905       -1.0695649403        6.6705376435  S1P1      6               0.0000000000
        43         6  ETHOX     H23            -2.2382198901       -0.0156956829        5.1257453113  S1P1      6               0.0000000000
        44         7  ETHOX     O1             -2.5346689410       -2.1541675082        4.7860146524  S1P1      7               0.0000000000
        45         7  ETHOX     C1             -4.0242232696       -2.2545402211        4.5642052879  S1P1      7               0.0000000000
        46         7  ETHOX     H11            -4.5449248978       -2.4285497311        5.5806080028  S1P1      7               0.0000000000
        47         7  ETHOX     H13            -4.4091496522       -1.2653057444        4.1083381508  S1P1      7               0.0000000000
        48         7  ETHOX     C2             -4.4023755101       -3.5143473818        3.5341542826  S1P1      7               0.0000000000
        49         7  ETHOX     H21            -3.9747756088       -4.4933464634        3.9745065497  S1P1      7               0.0000000000
        50         7  ETHOX     H23            -5.5517409089       -3.6105089829        3.4647003174  S1P1      7               0.0000000000
        51         8  ETHOX     O1             -3.8453094024       -3.2827310422        2.1481787714  S1P1      8               0.0000000000
        52         8  ETHOX     C1             -3.0514018528       -4.3562831195        1.4395644767  S1P1      8               0.0000000000
        53         8  ETHOX     H11            -3.7238640103       -5.2831345215        1.2801992840  S1P1      8               0.0000000000
        54         8  ETHOX     H13            -2.7408151266       -3.9499210473        0.4013996903  S1P1      8               0.0000000000
        55         8  ETHOX     C2             -1.6697463324       -4.8302957068        2.2537504186  S1P1      8               0.0000000000
        56         8  ETHOX     H21            -1.0378701835       -5.4981882854        1.5516720456  S1P1      8               0.0000000000
        57         8  ETHOX     H23            -1.9892122209       -5.4660041812        3.1675304864  S1P1      8               0.0000000000
        58         9  ETHOX     O1             -0.8116753213       -3.6944519422        2.7590928603  S1P1      9               0.0000000000
        59         9  ETHOX     C1             -0.1420822366       -2.7350042209        1.8022149357  S1P1      9               0.0000000000
        60         9  ETHOX     H11             0.7755584401       -2.2828493976        2.3468176685  S1P1      9               0.0000000000
        61         9  ETHOX     H13             0.2325435216       -3.3058485052        0.8714250968  S1P1      9               0.0000000000
        62         9  ETHOX     C2             -1.1326462275       -1.4772383969        1.3253403318  S1P1      9               0.0000000000
        63         9  ETHOX     H21            -1.7246566314       -1.1021511885        2.2461037137  S1P1      9               0.0000000000
        64         9  ETHOX     H23            -1.8825187612       -1.8667147455        0.5389005362  S1P1      9               0.0000000000
        65        10  ETHOX     O1             -0.3736958421       -0.3098002604        0.7337718629  S1P1      10              0.0000000000
        66        10  ETHOX     C1              0.3248605062        0.6711401904        1.6461535501  S1P1      10              0.0000000000
        67        10  ETHOX     H11            -0.4630299162        1.2395901356        2.2721518842  S1P1      10              0.0000000000
        68        10  ETHOX     H13             1.0093001504        0.0768187200        2.3662092861  S1P1      10              0.0000000000
        69        10  ETHOX     C2              1.2678545638        1.7768015391        0.8221448105  S1P1      10              0.0000000000
        70        10  ETHOX     H21             1.9194816113        1.2127412163        0.0515166921  S1P1      10              0.0000000000
        71        10  ETHOX     H23             1.9688705956        2.2870308961        1.5909768500  S1P1      10              0.0000000000
        72        11  ETHOX     O1              0.4929119671        2.8635791927        0.1161388552  S1P1      11              0.0000000000
        73        11  ETHOX     C1             -0.2924748026        2.5562318441       -1.1403067485  S1P1      11              0.0000000000
        74        11  ETHOX     H11            -0.1740929926        3.4558209595       -1.8591017610  S1P1      11              0.0000000000
        75        11  ETHOX     H13             0.1466476847        1.6185206719       -1.6516712735  S1P1      11              0.0000000000
        76        11  ETHOX     C2             -1.9192770388        2.3147402695       -0.8527314174  S1P1      11              0.0000000000
        77        11  ETHOX     H21            -2.3077145031        3.1766453842       -0.1893227089  S1P1      11              0.0000000000
        78        11  ETHOX     H23            -2.0548903237        1.3212127119       -0.2796193218  S1P1      11              0.0000000000
        79        12  ETHOX     O1             -2.7607778568        2.2701963057       -2.1105436730  S1P1      12              0.0000000000
        80        12  ETHOX     C1             -3.0291087568        3.5431893812       -2.8796713301  S1P1      12              0.0000000000
        81        12  ETHOX     H11            -3.5393074303        4.3020479036       -2.1701294832  S1P1      12              0.0000000000
        82        12  ETHOX     H13            -2.0243041391        3.9886755613       -3.2365987710  S1P1      12              0.0000000000
        83        12  ETHOX     C2             -4.0183563496        3.3196020974       -4.2071774011  S1P1      12              0.0000000000
        84        12  ETHOX     H21            -5.0140321116        2.8459102025       -3.8616380616  S1P1      12              0.0000000000
        85        12  ETHOX     H23            -4.2467014080        4.3570304968       -4.6680163316  S1P1      12              0.0000000000
        86        13  ETHOX     O1             -3.3860871640        2.4601261840       -5.2766608181  S1P1      13              0.0000000000
        87        13  ETHOX     C1             -3.9327711861        1.0801827339       -5.5672644013  S1P1      13              0.0000000000
        88        13  ETHOX     H11            -5.0611099915        1.1714609822       -5.8064663690  S1P1      13              0.0000000000
        89        13  ETHOX     H13            -3.3944896425        0.6577072505       -6.4991128572  S1P1      13              0.0000000000
        90        13  ETHOX     C2             -3.7390815094        0.0051425164       -4.3039917271  S1P1      13              0.0000000000
        91        13  ETHOX     H21            -4.1887619694       -1.0139016816       -4.6165878643  S1P1      13              0.0000000000
        92        13  ETHOX     H23            -4.3316055270        0.4006049377       -3.3922692135  S1P1      13              0.0000000000
        93        14  ETHOX     O1             -2.3008533070       -0.2070108444       -3.8861119893  S1P1      14              0.0000000000
        94        14  ETHOX     C1             -1.3075231716       -0.8234937802       -4.8442460332  S1P1      14              0.0000000000
        95        14  ETHOX     H11            -0.5839935365       -1.4982780580       -4.2436304629  S1P1      14              0.0000000000
        96        14  ETHOX     H13            -1.8742224591       -1.4827693233       -5.6070464211  S1P1      14              0.0000000000
        97        14  ETHOX     C2             -0.4049691569        0.3073837858       -5.6777878637  S1P1      14              0.0000000000
        98        14  ETHOX     H21             0.2880817130        0.8565012510       -4.9339573014  S1P1      14              0.0000000000
        99        14  ETHOX     H23            -1.1163626984        1.0805695529       -6.1578535170  S1P1      14              0.0000000000
       100        15  ETHOX     O1              0.4271776074       -0.3223419402       -6.7705829183  S1P1      15              0.0000000000
       101        15  ETHOX     C1              1.3444523271        0.5311117260       -7.6120981278  S1P1      15              0.0000000000
       102        15  ETHOX     H11             0.7317121934        1.4148556666       -8.0394575900  S1P1      15              0.0000000000
       103        15  ETHOX     H13             2.1897242642        0.9519081929       -6.9462954958  S1P1      15              0.0000000000
       104        15  ETHOX     C2              2.0207271216       -0.3045621464       -8.8916559710  S1P1      15              0.0000000000
       105        15  ETHOX     H21             1.1786811484       -0.8295265812       -9.4836238214  S1P1      15              0.0000000000
       106        15  ETHOX     H23             2.5329937848        0.4651189792       -9.5897580057  S1P1      15              0.0000000000
       107        16  ETHOX     O1              3.0614181092       -1.3169898522       -8.4723377667  S1P1      16              0.0000000000
       108        16  ETHOX     C1              2.7253320819       -2.7905918880       -8.4128573905  S1P1      16              0.0000000000
       109        16  ETHOX     H11             2.2744371714       -3.1120769512       -9.4281061123  S1P1      16              0.0000000000
       110        16  ETHOX     H13             3.7057399425       -3.3829325994       -8.2489738604  S1P1      16              0.0000000000
       111        16  ETHOX     C2              1.6550338254       -3.1968006604       -7.1975230593  S1P1      16              0.0000000000
       112        16  ETHOX     H21             1.4909636149       -4.3421851012       -7.2135609899  S1P1      16              0.0000000000
       113        16  ETHOX     H23             0.6408266035       -2.6856446561       -7.4143744822  S1P1      16              0.0000000000
       114        17  ETHOX     O1              2.1160661460       -2.7931087913       -5.8147027028  S1P1      17              0.0000000000
       115        17  ETHOX     C1              3.3514914952       -3.4172953892       -5.2068022793  S1P1      17              0.0000000000
       116        17  ETHOX     H11             3.1916008306       -3.4937143543       -4.0624145307  S1P1      17              0.0000000000
       117        17  ETHOX     H13             3.4876987990       -4.4852327486       -5.6271371562  S1P1      17              0.0000000000
       118        17  ETHOX     C2              4.7474679801       -2.5428422096       -5.4830926476  S1P1      17              0.0000000000
       119        17  ETHOX     H21             4.5963967726       -1.4690526743       -5.0812049704  S1P1      17              0.0000000000
       120        17  ETHOX     H23             4.9482201288       -2.4883744287       -6.6186269163  S1P1      17              0.0000000000
       121        18  ETHOX     O1              5.9548479800       -3.1486319180       -4.8066673005  S1P1      18              0.0000000000
       122        18  ETHOX     C1              7.3165660177       -2.5207090016       -4.9930801469  S1P1      18              0.0000000000
       123        18  ETHOX     H11             7.6071711010       -2.5962122341       -6.1104206315  S1P1      18              0.0000000000
       124        18  ETHOX     H13             7.2679110383       -1.4046397236       -4.6950995916  S1P1      18              0.0000000000
       125        18  ETHOX     C2              8.4999060173       -3.2687580567       -4.0831203604  S1P1      18              0.0000000000
       126        18  ETHOX     H21             8.4942068146       -4.4009288960       -4.3120719341  S1P1      18              0.0000000000
       127        18  ETHOX     H23             9.5256882997       -2.8329036279       -4.3960449796  S1P1      18              0.0000000000
       128        19  ETHOX     O1              8.3299397643       -3.0506601686       -2.5969954332  S1P1      19              0.0000000000
       129        19  ETHOX     C1              7.3517359628       -3.8928602402       -1.8110570233  S1P1      19              0.0000000000
       130        19  ETHOX     H11             6.3382277967       -3.9244933196       -2.3646792549  S1P1      19              0.0000000000
       131        19  ETHOX     H13             7.7720537180       -4.9692837660       -1.7457166805  S1P1      19              0.0000000000
       132        19  ETHOX     C2              7.0881930083       -3.3336417968       -0.2583079767  S1P1      19              0.0000000000
       133        19  ETHOX     H21             8.1018760158       -3.1143367748        0.2485465950  S1P1      19              0.0000000000
       134        19  ETHOX     H23             6.5544014901       -4.1755891320        0.3327928246  S1P1      19              0.0000000000
       135        20  ETHOX     O1              6.2057085166       -2.1069519249       -0.1987824101  S1P1      20              0.0000000000
       136        20  ETHOX     C1              6.8082737982       -0.7265602448       -0.0376268942  S1P1      20              0.0000000000
       137        20  ETHOX     H11             5.9284283928        0.0150240495        0.1377455869  S1P1      20              0.0000000000
       138        20  ETHOX     H13             7.4570267448       -0.7240989560        0.9266986315  S1P1      20              0.0000000000
       139        20  ETHOX     C2              7.7159003504       -0.2045275062       -1.3329325170  S1P1      20              0.0000000000
       140        20  ETHOX     H21             7.0905992680       -0.2371584481       -2.2913400315  S1P1      20              0.0000000000
       141        20  ETHOX     H22             8.0619076692        0.8711730607       -1.1523809889  S1P1      20              0.0000000000
       142        20  ETHOX     H23             8.6353923565       -0.8731241715       -1.4630668252  S1P1      20              0.0000000000
       143        21  TIP3      OH2            11.6100564810        9.9215167438        6.6563918360  SOLV      1               0.0000000000
       144        21  TIP3      H1             11.6991664810       10.8653367438        6.5241018360  SOLV      1               0.0000000000
       145        21  TIP3      H2             10.9718164810        9.6461567438        5.9983318360  SOLV      1               0.0000000000
       146        22  TIP3      OH2            10.5431864810        9.1765867438       10.0752118360  SOLV      2               0.0000000000
       147        22  TIP3      H1             10.5049364810        8.5302167438       10.7801718360  SOLV      2               0.0000000000
       148        22  TIP3      H2             10.2208364810        8.7100267438        9.3040818360  SOLV      2               0.0000000000
       149        23  TIP3      OH2             2.9116864810        8.7907967438       11.6682018360  SOLV      3               0.0000000000
       150        23  TIP3      H1              2.9528964810        8.1651267438       12.3914418360  SOLV      3               0.0000000000
       151        23  TIP3      H2              3.6144564810        9.4146567438       11.8502418360  SOLV      3               0.0000000000
       152        24  TIP3      OH2            14.2492064810       12.1156267438        8.3767218360  SOLV      4               0.0000000000
       153        24  TIP3      H1             13.8084764810       11.3952267438        8.8272818360  SOLV      4               0.0000000000
       154        24  TIP3      H2             14.2361764810       12.8363467438        9.0064918360  SOLV      4               0.0000000000
       155        25  TIP3      OH2             3.8349964810       13.2406867438       10.2031118360  SOLV      5               0.0000000000
       156        25  TIP3      H1              3.4655164810       12.4387367438        9.8335418360  SOLV      5               0.0000000000
       157        25  TIP3      H2              4.7761064810       13.0721767438       10.2494518360  SOLV      5               0.0000000000
       158        26  TIP3      OH2             0.4450464810        6.9009467438        5.5959918360  SOLV      6               0.0000000000
       159        26  TIP3      H1             -0.0026135190        7.7468167438        5.5776418360  SOLV      6               0.0000000000
       160        26  TIP3      H2             -0.1158335190        6.3213667438        5.0805018360  SOLV      6               0.0000000000
       161        27  TIP3      OH2             1.1556564810        9.0629067438        7.7217918360  SOLV      7               0.0000000000
       162        27  TIP3      H1              1.3690064810        8.2930667438        8.2490918360  SOLV      7               0.0000000000
       163        27  TIP3      H2              1.8934164810        9.1525767438        7.1185518360  SOLV      7               0.0000000000
       164        28  TIP3      OH2            11.3607564810       17.2197967438        8.5887618360  SOLV      8               0.0000000000
       165        28  TIP3      H1             11.9803964810       16.5432667438        8.3156818360  SOLV      8               0.0000000000
       166        28  TIP3      H2             11.1524964810       17.0018767438        9.4972518360  SOLV      8               0.0000000000
       167        29  TIP3      OH2             8.9326264810       11.6087267438       10.4813118360  SOLV      9               0.0000000000
       168        29  TIP3      H1              9.2364164810       10.9228667438        9.8867218360  SOLV      9               0.0000000000
       169        29  TIP3      H2              9.6540264810       11.7275967438       11.0991118360  SOLV      9               0.0000000000
       170        30  TIP3      OH2            17.5956064810        3.2102567438       11.3419318360  SOLV      10              0.0000000000
       171        30  TIP3      H1             17.6448264810        3.8203767438       12.0778418360  SOLV      10              0.0000000000
       172        30  TIP3      H2             18.0211164810        3.6713467438       10.6190418360  SOLV      10              0.0000000000
       173        31  TIP3      OH2            12.0733264810        6.0029667438       10.8087918360  SOLV      11              0.0000000000
       174        31  TIP3      H1             12.2159164810        5.0566667438       10.8289518360  SOLV      11              0.0000000000
       175        31  TIP3      H2             11.9672264810        6.2099467438        9.8802818360  SOLV      11              0.0000000000
       176        32  TIP3      OH2             5.2281564810        4.1046067438        8.0812718360  SOLV      12              0.0000000000
       177        32  TIP3      H1              5.2712664810        4.9644567438        7.6629018360  SOLV      12              0.0000000000
       178        32  TIP3      H2              4.7705664810        3.5520767438        7.4475918360  SOLV      12              0.0000000000
       179        33  TIP3      OH2            12.9504264810        4.2351667438        6.4821018360  SOLV      13              0.0000000000
       180        33  TIP3      H1             13.5968564810        3.9064867438        7.1068618360  SOLV      13              0.0000000000
       181        33  TIP3      H2             13.4603664810        4.7530667438        5.8592418360  SOLV      13              0.0000000000
       182        34  TIP3      OH2             1.8483064810        6.5011867438        8.8434118360  SOLV      14              0.0000000000
       183        34  TIP3      H1              2.5019664810        5.9513567438        9.2754218360  SOLV      14              0.0000000000
       184        34  TIP3      H2              1.8722364810        6.2270867438        7.9266118360  SOLV      14              0.0000000000
       185        35  TIP3      OH2             7.0047564810        8.0513167438        8.0585618360  SOLV      15              0.0000000000
       186        35  TIP3      H1              7.6208564810        7.5248567438        8.5679618360  SOLV      15              0.0000000000
       187        35  TIP3      H2              6.4186364810        7.4111867438        7.6549218360  SOLV      15              0.0000000000
       188        36  TIP3      OH2            17.9870664810        4.6881767438       13.5779118360  SOLV      16              0.0000000000
       189        36  TIP3      H1             17.2985264810        5.3462467438       13.4825718360  SOLV      16              0.0000000000
       190        36  TIP3      H2             18.0025264810        4.4909667438       14.5144518360  SOLV      16              0.0000000000
       191        37  TIP3      OH2             4.0383464810        3.0224467438       12.1553518360  SOLV      17              0.0000000000
       192        37  TIP3      H1              3.8195164810        3.5525067438       11.3889518360  SOLV      17              0.0000000000
       193        37  TIP3      H2              3.3704364810        3.2489967438       12.8024918360  SOLV      17              0.0000000000
       194        38  TIP3      OH2            11.4073264810       12.5225567438        5.6992618360  SOLV      18              0.0000000000
       195        38  TIP3      H1             11.1118364810       12.1997867438        4.8479518360  SOLV      18              0.0000000000
       196        38  TIP3      H2             11.0831064810       13.4222267438        5.7405218360  SOLV      18              0.0000000000
       197        39  TIP3      OH2             6.6074864810       10.6980167438       12.4427218360  SOLV      19              0.0000000000
       198        39  TIP3      H1              5.8673964810       11.2961667438       12.5462418360  SOLV      19              0.0000000000
       199        39  TIP3      H2              7.3214364810       11.2519767438       12.1270818360  SOLV      19              0.0000000000
       200        40  TIP3      OH2            14.7142664810        3.5260967438        8.4626918360  SOLV      20              0.0000000000
       201        40  TIP3      H1             14.4990664810        2.7604367438        8.9952918360  SOLV      20              0.0000000000
       202        40  TIP3      H2             15.3700064810        3.9985567438        8.9755418360  SOLV      20              0.0000000000
       203        41  TIP3      OH2             3.6320764810        4.9146267438       10.1075718360  SOLV      21              0.0000000000
       204        41  TIP3      H1              4.2457064810        5.5473867438       10.4808118360  SOLV      21              0.0000000000
       205        41  TIP3      H2              4.1441464810        4.4421267438        9.4512618360  SOLV      21              0.0000000000
       206        42  TIP3      OH2             5.0149164810       12.6623167438       13.2298718360  SOLV      22              0.0000000000
       207        42  TIP3      H1              5.0096764810       13.5416667438       12.8518018360  SOLV      22              0.0000000000
       208        42  TIP3      H2              4.1613264810       12.5787267438       13.6548618360  SOLV      22              0.0000000000
       209        43  TIP3      OH2             1.1360064810       12.3331067438        4.0118018360  SOLV      23              0.0000000000
       210        43  TIP3      H1              0.8640964810       12.5622067438        3.1230918360  SOLV      23              0.0000000000
       211        43  TIP3      H2              1.1815764810       13.1709867438        4.4723318360  SOLV      23              0.0000000000
       212        44  TIP3      OH2            14.7609764810       13.9546967438       10.7246518360  SOLV      24              0.0000000000
       213        44  TIP3      H1             13.8193464810       14.0130867438       10.8863418360  SOLV      24              0.0000000000
       214        44  TIP3      H2             15.0375864810       14.8607467438       10.5876218360  SOLV      24              0.0000000000
       215        45  TIP3      OH2            15.0616764810        2.2412267438       12.1420418360  SOLV      25              0.0000000000
       216        45  TIP3      H1             14.3255964810        2.8519367438       12.1041718360  SOLV      25              0.0000000000
       217        45  TIP3      H2             15.7450764810        2.6561267438       11.6156818360  SOLV      25              0.0000000000
       218        46  TIP3      OH2             8.0648164810        0.3279567438        9.6078418360  SOLV      26              0.0000000000
       219        46  TIP3      H1              7.9472364810       -0.6204432562        9.5536718360  SOLV      26              0.0000000000
       220        46  TIP3      H2              7.2098264810        0.6605667438        9.8809518360  SOLV      26              0.0000000000
       221        47  TIP3      OH2            13.0130964810       15.7360467438        7.3498118360  SOLV      27              0.0000000000
       222        47  TIP3      H1             13.4383264810       15.0288367438        6.8647718360  SOLV      27              0.0000000000
       223        47  TIP3      H2             13.3300964810       16.5373167438        6.9330318360  SOLV      27              0.0000000000
       224        48  TIP3      OH2            14.1727464810       13.6368967438        5.8584718360  SOLV      28              0.0000000000
       225        48  TIP3      H1             13.9152264810       12.9469067438        5.2470618360  SOLV      28              0.0000000000
       226        48  TIP3      H2             14.2438264810       13.1940167438        6.7040618360  SOLV      28              0.0000000000
       227        49  TIP3      OH2            15.8587664810       12.2035667438       14.3358218360  SOLV      29              0.0000000000
       228        49  TIP3      H1             15.9983964810       11.6118167438       13.5965218360  SOLV      29              0.0000000000
       229        49  TIP3      H2             16.0260464810       13.0761567438       13.9797018360  SOLV      29              0.0000000000
       230        50  TIP3      OH2            10.3313064810        9.1655167438        4.1084218360  SOLV      30              0.0000000000
       231        50  TIP3      H1              9.6198564810        9.7004867438        3.7564718360  SOLV      30              0.0000000000
       232        50  TIP3      H2             11.0222664810        9.2207267438        3.4483118360  SOLV      30              0.0000000000
       233        51  TIP3      OH2            10.3852264810        7.6229467438        1.1469218360  SOLV      31              0.0000000000
       234        51  TIP3      H1             11.0862164810        7.6456367438        1.7983218360  SOLV      31              0.0000000000
       235        51  TIP3      H2             10.6875164810        6.9949167438        0.4908518360  SOLV      31              0.0000000000
       236        52  TIP3      OH2            17.7006964810        8.5433667438       12.4018618360  SOLV      32              0.0000000000
       237        52  TIP3      H1             17.0481064810        9.2379267438       12.4909518360  SOLV      32              0.0000000000
       238        52  TIP3      H2             18.1657264810        8.7534567438       11.5920218360  SOLV      32              0.0000000000
       239        53  TIP3      OH2            13.7370764810        9.3748467438        5.0600118360  SOLV      33              0.0000000000
       240        53  TIP3      H1             13.0051764810        9.6032167438        5.6330718360  SOLV      33              0.0000000000
       241        53  TIP3      H2             14.1842964810        8.6611167438        5.5147618360  SOLV      33              0.0000000000
       242        54  TIP3      OH2            13.6344264810        7.5491067438       14.1277118360  SOLV      34              0.0000000000
       243        54  TIP3      H1             13.7143364810        8.3125467438       14.6995618360  SOLV      34              0.0000000000
       244        54  TIP3      H2             13.0331964810        7.8283467438       13.4372218360  SOLV      34              0.0000000000
       245        55  TIP3      OH2             5.3824464810       10.0054667438        6.9425118360  SOLV      35              0.0000000000
       246        55  TIP3      H1              5.0519664810        9.6348067438        6.1242118360  SOLV      35              0.0000000000
       247        55  TIP3      H2              5.9708564810        9.3348667438        7.2893418360  SOLV      35              0.0000000000
       248        56  TIP3      OH2             6.7491964810       13.4335267438        9.6237318360  SOLV      36              0.0000000000
       249        56  TIP3      H1              6.6543264810       12.8548367438        8.8671918360  SOLV      36              0.0000000000
       250        56  TIP3      H2              7.4785564810       13.0620967438       10.1200118360  SOLV      36              0.0000000000
       251        57  TIP3      OH2             5.7489964810        8.7740267438       10.5760118360  SOLV      37              0.0000000000
       252        57  TIP3      H1              6.3142464810        8.8954467438        9.8131318360  SOLV      37              0.0000000000
       253        57  TIP3      H2              6.0678864810        9.4115267438       11.2148618360  SOLV      37              0.0000000000
       254        58  TIP3      OH2            12.0582164810       14.2772167438       11.3100618360  SOLV      38              0.0000000000
       255        58  TIP3      H1             11.8178764810       14.9395267438       11.9579818360  SOLV      38              0.0000000000
       256        58  TIP3      H2             11.8600364810       13.4427367438       11.7350218360  SOLV      38              0.0000000000
       257        59  TIP3      OH2             6.6290664810       13.1732967438       15.2932018360  SOLV      39              0.0000000000
       258        59  TIP3      H1              6.3178164810       13.9556167438       15.7485218360  SOLV      39              0.0000000000
       259        59  TIP3      H2              5.9790864810       13.0202067438       14.6074018360  SOLV      39              0.0000000000
       260        60  TIP3      OH2            12.6080264810        8.5371367438        2.7451318360  SOLV      40              0.0000000000
       261        60  TIP3      H1             13.1875764810        8.6871667438        3.4920218360  SOLV      40              0.0000000000
       262        60  TIP3      H2             13.0220264810        9.0078767438        2.0217718360  SOLV      40              0.0000000000
       263        61  TIP3      OH2             3.5490564810        9.3714067438       14.5217718360  SOLV      41              0.0000000000
       264        61  TIP3      H1              3.6193764810       10.0220867438       15.2202718360  SOLV      41              0.0000000000
       265        61  TIP3      H2              2.6582764810        9.4741567438       14.1868618360  SOLV      41              0.0000000000
       266        62  TIP3      OH2            10.3345164810       15.2739867438        6.1804418360  SOLV      42              0.0000000000
       267        62  TIP3      H1             10.8082764810       15.5696167438        6.9578618360  SOLV      42              0.0000000000
       268        62  TIP3      H2              9.7714464810       16.0121467438        5.9474018360  SOLV      42              0.0000000000
       269        63  TIP3      OH2             4.8686564810       15.2447967438       16.0565818360  SOLV      43              0.0000000000
       270        63  TIP3      H1              4.8761864810       15.1087667438       15.1091318360  SOLV      43              0.0000000000
       271        63  TIP3      H2              3.9526964810       15.1276067438       16.3085818360  SOLV      43              0.0000000000
       272        64  TIP3      OH2            16.3068664810        0.2871767438        2.5581018360  SOLV      44              0.0000000000
       273        64  TIP3      H1             15.4069364810        0.4260767438        2.8531618360  SOLV      44              0.0000000000
       274        64  TIP3      H2             16.5587064810        1.1186367438        2.1562718360  SOLV      44              0.0000000000
       275        65  TIP3      OH2             4.3727164810        9.0748967438        4.5317918360  SOLV      45              0.0000000000
       276        65  TIP3      H1              4.0808464810        9.8430667438        4.0409218360  SOLV      45              0.0000000000
       277        65  TIP3      H2              3.6982364810        8.4155167438        4.3689318360  SOLV      45              0.0000000000
       278        66  TIP3      OH2            17.4960064810       14.6534167438        0.9344918360  SOLV      46              0.0000000000
       279        66  TIP3      H1             17.5693564810       15.5924367438        1.1050218360  SOLV      46              0.0000000000
       280        66  TIP3      H2             18.4015164810       14.3482767438        0.8782218360  SOLV      46              0.0000000000
       281        67  TIP3      OH2             0.4657264810       11.4378167438       13.3467718360  SOLV      47              0.0000000000
       282        67  TIP3      H1             -0.0354335190       11.4097567438       12.5317418360  SOLV      47              0.0000000000
       283        67  TIP3      H2              0.4710964810       10.5321367438       13.6565018360  SOLV      47              0.0000000000
       284        68  TIP3      OH2             0.2159964810       14.2181967438       10.2307918360  SOLV      48              0.0000000000
       285        68  TIP3      H1              1.1620564810       14.0738967438       10.2117418360  SOLV      48              0.0000000000
       286        68  TIP3      H2              0.1036264810       15.0024767438       10.7679118360  SOLV      48              0.0000000000
       287        69  TIP3      OH2            18.4138464810       14.8841667438       15.9131618360  SOLV      49              0.0000000000
       288        69  TIP3      H1             18.3645264810       13.9289767438       15.8759218360  SOLV      49              0.0000000000
       289        69  TIP3      H2             17.5870764810       15.1516967438       16.3145418360  SOLV      49              0.0000000000
       290        70  TIP3      OH2             9.3922464810       14.4580867438       14.7893018360  SOLV      50              0.0000000000
       291        70  TIP3      H1              9.4797064810       15.2845467438       15.2642118360  SOLV      50              0.0000000000
       292        70  TIP3      H2              8.5287564810       14.1284667438       15.0382318360  SOLV      50              0.0000000000
       293        71  TIP3      OH2             9.8068264810       18.2304567438        4.5953618360  SOLV      51              0.0000000000
       294        71  TIP3      H1              9.7314264810       18.1091767438        3.6488818360  SOLV      51              0.0000000000
       295        71  TIP3      H2              9.8396964810       19.1797267438        4.7138218360  SOLV      51              0.0000000000
       296        72  TIP3      OH2             3.4602064810       17.0191567438        6.3762618360  SOLV      52              0.0000000000
       297        72  TIP3      H1              3.6122464810       16.6711967438        7.2549118360  SOLV      52              0.0000000000
       298        72  TIP3      H2              2.6092464810       16.6628867438        6.1209818360  SOLV      52              0.0000000000
       299        73  TIP3      OH2            12.9084264810       17.3844767438        1.5976018360  SOLV      53              0.0000000000
       300        73  TIP3      H1             13.2832664810       16.6400867438        1.1268618360  SOLV      53              0.0000000000
       301        73  TIP3      H2             12.9127964810       17.1145367438        2.5159318360  SOLV      53              0.0000000000
       302        74  TIP3      OH2            12.5772364810       17.3101867438        4.3468218360  SOLV      54              0.0000000000
       303        74  TIP3      H1             11.6422164810       17.4103767438        4.5255218360  SOLV      54              0.0000000000
       304        74  TIP3      H2             12.8574264810       16.6007867438        4.9251418360  SOLV      54              0.0000000000
       305        75  TIP3      OH2            15.5658264810        6.3774167438       16.3933818360  SOLV      55              0.0000000000
       306        75  TIP3      H1             15.1585064810        6.8579767438       15.6727118360  SOLV      55              0.0000000000
       307        75  TIP3      H2             15.6063964810        5.4720167438       16.0854618360  SOLV      55              0.0000000000
       308        76  TIP3      OH2             2.7147764810       12.7613567438       14.3900518360  SOLV      56              0.0000000000
       309        76  TIP3      H1              2.9309064810       12.3999167438       15.2496318360  SOLV      56              0.0000000000
       310        76  TIP3      H2              1.8592464810       12.3867367438       14.1804018360  SOLV      56              0.0000000000
       311        77  TIP3      OH2             5.3335764810        1.2314067438       10.3854718360  SOLV      57              0.0000000000
       312        77  TIP3      H1              4.4719464810        1.1442267438        9.9777618360  SOLV      57              0.0000000000
       313        77  TIP3      H2              5.3111464810        2.0874167438       10.8132318360  SOLV      57              0.0000000000
       314        78  TIP3      OH2             9.9963564810        0.9534467438       13.7601718360  SOLV      58              0.0000000000
       315        78  TIP3      H1             10.4166664810        0.5381567438       14.5132318360  SOLV      58              0.0000000000
       316        78  TIP3      H2              9.0633164810        0.7747767438       13.8773718360  SOLV      58              0.0000000000
       317        79  TIP3      OH2            13.3228464810        4.7089667438       14.6136218360  SOLV      59              0.0000000000
       318        79  TIP3      H1             12.8087964810        4.5831867438       15.4112218360  SOLV      59              0.0000000000
       319        79  TIP3      H2             13.1673164810        5.6212767438       14.3692418360  SOLV      59              0.0000000000
       320        80  TIP3      OH2            14.0853364810        9.5699667438        0.3749218360  SOLV      60              0.0000000000
       321        80  TIP3      H1             14.1274164810        9.3473567438       -0.5550781640  SOLV      60              0.0000000000
       322        80  TIP3      H2             14.9345464810        9.9686767438        0.5649118360  SOLV      60              0.0000000000
       323        81  TIP3      OH2             9.6580864810        3.4457867438        1.0452518360  SOLV      61              0.0000000000
       324        81  TIP3      H1              9.4045664810        3.4649467438        1.9680618360  SOLV      61              0.0000000000
       325        81  TIP3      H2              9.4012964810        2.5743267438        0.7438718360  SOLV      61              0.0000000000
       326        82  TIP3      OH2             5.4245864810        6.1968567438       11.4804918360  SOLV      62              0.0000000000
       327        82  TIP3      H1              4.7827964810        6.1565867438       12.1895018360  SOLV      62              0.0000000000
       328        82  TIP3      H2              5.4617864810        7.1233267438       11.2427918360  SOLV      62              0.0000000000
       329        83  TIP3      OH2             5.4214964810        6.4178667438        6.3924918360  SOLV      63              0.0000000000
       330        83  TIP3      H1              4.5287864810        6.0774767438        6.3338718360  SOLV      63              0.0000000000
       331        83  TIP3      H2              5.8721564810        6.0409567438        5.6368118360  SOLV      63              0.0000000000
       332        84  TIP3      OH2            10.9570464810        6.8338967438        5.2095718360  SOLV      64              0.0000000000
       333        84  TIP3      H1             10.5480764810        7.6487567438        4.9180518360  SOLV      64              0.0000000000
       334        84  TIP3      H2             11.6776664810        6.6939067438        4.5952818360  SOLV      64              0.0000000000
       335        85  TIP3      OH2            10.0592064810        7.0095367438       16.6976418360  SOLV      65              0.0000000000
       336        85  TIP3      H1              9.4965864810        6.3046967438       17.0184218360  SOLV      65              0.0000000000
       337        85  TIP3      H2             10.8855464810        6.8887267438       17.1654018360  SOLV      65              0.0000000000
       338        86  TIP3      OH2            11.9618164810        6.2799367438        8.0235418360  SOLV      66              0.0000000000
       339        86  TIP3      H1             11.7662664810        6.8856167438        7.3086018360  SOLV      66              0.0000000000
       340        86  TIP3      H2             12.1430764810        5.4464567438        7.5891718360  SOLV      66              0.0000000000
       341        87  TIP3      OH2             3.1746364810        6.5172067438       13.3476918360  SOLV      67              0.0000000000
       342        87  TIP3      H1              3.1365764810        6.9173667438       14.2164018360  SOLV      67              0.0000000000
       343        87  TIP3      H2              2.6837464810        5.7004467438       13.4379818360  SOLV      67              0.0000000000
       344        88  TIP3      OH2             6.5403764810        3.8914367438        0.1462918360  SOLV      68              0.0000000000
       345        88  TIP3      H1              6.1094464810        3.4464467438        0.8760318360  SOLV      68              0.0000000000
       346        88  TIP3      H2              5.8222464810        4.2630667438       -0.3659581640  SOLV      68              0.0000000000
       347        89  TIP3      OH2            -0.2172835190        3.6333867438        7.1981618360  SOLV      69              0.0000000000
       348        89  TIP3      H1              0.4134864810        3.6045967438        7.9175518360  SOLV      69              0.0000000000
       349        89  TIP3      H2              0.2321464810        3.2082567438        6.4677518360  SOLV      69              0.0000000000
       350        90  TIP3      OH2            11.2257364810        7.9180667438       12.6947818360  SOLV      71              0.0000000000
       351        90  TIP3      H1             11.5492164810        7.2870367438       12.0518318360  SOLV      71              0.0000000000
       352        90  TIP3      H2             10.7856664810        7.3832867438       13.3555218360  SOLV      71              0.0000000000
       353        91  TIP3      OH2             8.0030264810        3.8456167438        7.4789018360  SOLV      72              0.0000000000
       354        91  TIP3      H1              7.0921364810        3.9022967438        7.7675018360  SOLV      72              0.0000000000
       355        91  TIP3      H2              8.5083164810        3.7851667438        8.2896218360  SOLV      72              0.0000000000
       356        92  TIP3      OH2             2.8313664810        5.4742467438        6.3056618360  SOLV      73              0.0000000000
       357        92  TIP3      H1              1.9421664810        5.5737967438        5.9656218360  SOLV      73              0.0000000000
       358        92  TIP3      H2              3.1278564810        4.6325467438        5.9594518360  SOLV      73              0.0000000000
       359        93  TIP3      OH2             6.4845464810        5.4745067438        3.9621218360  SOLV      74              0.0000000000
       360        93  TIP3      H1              7.4160964810        5.6035067438        4.1404318360  SOLV      74              0.0000000000
       361        93  TIP3      H2              6.2695764810        6.1439367438        3.3125918360  SOLV      74              0.0000000000
       362        94  TIP3      OH2            12.4082164810        3.0802467438       10.7430818360  SOLV      75              0.0000000000
       363        94  TIP3      H1             11.7313764810        3.2115567438       11.4070518360  SOLV      75              0.0000000000
       364        94  TIP3      H2             11.9227064810        2.9251967438        9.9328518360  SOLV      75              0.0000000000
       365        95  TIP3      OH2             5.1585664810        6.6687267438        1.5287318360  SOLV      76              0.0000000000
       366        95  TIP3      H1              4.6160764810        6.2891067438        0.8374918360  SOLV      76              0.0000000000
       367        95  TIP3      H2              5.9920564810        6.8631967438        1.1001418360  SOLV      76              0.0000000000
       368        96  TIP3      OH2            15.6957264810       18.7517867438       17.0198418360  SOLV      77              0.0000000000
       369        96  TIP3      H1             15.8955964810       19.1759767438       16.1853718360  SOLV      77              0.0000000000
       370        96  TIP3      H2             16.3510964810       19.0956067438       17.6268818360  SOLV      77              0.0000000000
       371        97  TIP3      OH2             3.2937064810       11.2259167438       16.6278918360  SOLV      78              0.0000000000
       372        97  TIP3      H1              4.0259464810       11.4805067438       17.1893418360  SOLV      78              0.0000000000
       373        97  TIP3      H2              2.5135764810       11.4304567438       17.1434318360  SOLV      78              0.0000000000
       374        98  TIP3      OH2             9.3229964810        6.6329167438        9.3658618360  SOLV      79              0.0000000000
       375        98  TIP3      H1              9.8873364810        6.0865767438        8.8188218360  SOLV      79              0.0000000000
       376        98  TIP3      H2              9.1753364810        6.1111067438       10.1546218360  SOLV      79              0.0000000000
       377        99  TIP3      OH2             4.3249664810        2.7695267438        5.7843418360  SOLV      80              0.0000000000
       378        99  TIP3      H1              4.0079164810        1.8670567438        5.7488818360  SOLV      80              0.0000000000
       379        99  TIP3      H2              5.1063764810        2.7712667438        5.2315018360  SOLV      80              0.0000000000
       380       100  TIP3      OH2             7.9495864810        5.0215267438       11.7799018360  SOLV      81              0.0000000000
       381       100  TIP3      H1              7.1141164810        5.4754767438       11.8901418360  SOLV      81              0.0000000000
       382       100  TIP3      H2              8.4736464810        5.2973767438       12.5318918360  SOLV      81              0.0000000000
       383       101  TIP3      OH2             8.4938464810       11.2342967438        3.4645418360  SOLV      82              0.0000000000
       384       101  TIP3      H1              7.7489464810       10.7268267438        3.1423318360  SOLV      82              0.0000000000
       385       101  TIP3      H2              8.3595664810       11.2830967438        4.4110218360  SOLV      82              0.0000000000
       386       102  TIP3      OH2            15.6437364810       10.3671167438       12.2513018360  SOLV      83              0.0000000000
       387       102  TIP3      H1             16.2856164810       10.8237467438       11.7075218360  SOLV      83              0.0000000000
       388       102  TIP3      H2             14.8134264810       10.4803567438       11.7887118360  SOLV      83              0.0000000000
       389       103  TIP3      OH2            12.3915264810        4.0482867438        1.6638018360  SOLV      84              0.0000000000
       390       103  TIP3      H1             11.4529464810        4.1598467438        1.5126818360  SOLV      84              0.0000000000
       391       103  TIP3      H2             12.6887364810        4.9049767438        1.9703718360  SOLV      84              0.0000000000
       392       104  TIP3      OH2            10.0130564810       11.4186267438       14.7014518360  SOLV      85              0.0000000000
       393       104  TIP3      H1              9.6676664810       11.0368667438       15.5084118360  SOLV      85              0.0000000000
       394       104  TIP3      H2              9.8130664810       12.3519867438       14.7727418360  SOLV      85              0.0000000000
       395       105  TIP3      OH2            13.1098764810        5.9155567438        3.3245418360  SOLV      86              0.0000000000
       396       105  TIP3      H1             14.0017764810        5.7780567438        3.6436618360  SOLV      86              0.0000000000
       397       105  TIP3      H2             13.1662364810        6.7061667438        2.7878918360  SOLV      86              0.0000000000
       398       106  TIP3      OH2             3.6186764810       10.5292967438        9.2343318360  SOLV      87              0.0000000000
       399       106  TIP3      H1              4.3633964810       10.5268667438        8.6329818360  SOLV      87              0.0000000000
       400       106  TIP3      H2              3.6963364810        9.7056767438        9.7158418360  SOLV      87              0.0000000000
       401       107  TIP3      OH2            10.6192564810       12.6927267438        2.4900018360  SOLV      88              0.0000000000
       402       107  TIP3      H1             10.3240964810       13.5195167438        2.8714818360  SOLV      88              0.0000000000
       403       107  TIP3      H2              9.9162564810       12.0734167438        2.6861418360  SOLV      88              0.0000000000
       404       108  TIP3      OH2             0.6266464810        8.9899867438       14.5491818360  SOLV      89              0.0000000000
       405       108  TIP3      H1              0.8495064810        8.5719467438       15.3809318360  SOLV      89              0.0000000000
       406       108  TIP3      H2              0.0246564810        8.3774867438       14.1264618360  SOLV      89              0.0000000000
       407       109  TIP3      OH2             7.6431364810        8.5069767438       16.7621518360  SOLV      90              0.0000000000
       408       109  TIP3      H1              7.3472164810        8.3412767438       15.8670618360  SOLV      90              0.0000000000
       409       109  TIP3      H2              8.5746564810        8.2870067438       16.7515418360  SOLV      90              0.0000000000
       410       110  TIP3      OH2            12.2634164810       13.8801767438       14.6519518360  SOLV      91              0.0000000000
       411       110  TIP3      H1             11.3628464810       14.0634367438       14.3843418360  SOLV      91              0.0000000000
       412       110  TIP3      H2             12.2975264810       14.1391067438       15.5728318360  SOLV      91              0.0000000000
       413       111  TIP3      OH2            17.9947464810        6.1249667438        3.0192118360  SOLV      92              0.0000000000
       414       111  TIP3      H1             17.4403764810        5.7287667438        2.3469618360  SOLV      92              0.0000000000
       415       111  TIP3      H2             18.0951064810        7.0354867438        2.7415418360  SOLV      92              0.0000000000
       416       112  TIP3      OH2            17.9579464810       11.9251367438       15.8563618360  SOLV      93              0.0000000000
       417       112  TIP3      H1             17.1067964810       12.1635167438       15.4890018360  SOLV      93              0.0000000000
       418       112  TIP3      H2             18.5482864810       11.9084567438       15.1030718360  SOLV      93              0.0000000000
       419       113  TIP3      OH2            16.2899164810       14.9110067438        3.4844218360  SOLV      94              0.0000000000
       420       113  TIP3      H1             15.9170264810       14.0853867438        3.7934818360  SOLV      94              0.0000000000
       421       113  TIP3      H2             16.5672664810       14.7279467438        2.5867618360  SOLV      94              0.0000000000
       422       114  TIP3      OH2            13.4503064810        9.7189567438       10.5056118360  SOLV      95              0.0000000000
       423       114  TIP3      H1             12.5219964810        9.4871467438       10.4785418360  SOLV      95              0.0000000000
       424       114  TIP3      H2             13.9014164810        8.9419367438       10.1754918360  SOLV      95              0.0000000000
       425       115  TIP3      OH2             5.9936164810       14.0471167438        6.6384818360  SOLV      96              0.0000000000
       426       115  TIP3      H1              6.5208364810       14.8205567438        6.4383618360  SOLV      96              0.0000000000
       427       115  TIP3      H2              5.1134664810       14.2720367438        6.3368818360  SOLV      96              0.0000000000
       428       116  TIP3      OH2             1.7483864810        8.9095267438        1.2257218360  SOLV      97              0.0000000000
       429       116  TIP3      H1              2.3643764810        9.5362467438        1.6052018360  SOLV      97              0.0000000000
       430       116  TIP3      H2              0.8866464810        9.2255067438        1.4973718360  SOLV      97              0.0000000000
       431       117  TIP3      OH2             7.4208464810       11.7101067438        6.2149118360  SOLV      98              0.0000000000
       432       117  TIP3      H1              7.1798464810       12.6355467438        6.2564418360  SOLV      98              0.0000000000
       433       117  TIP3      H2              6.6802064810       11.2512367438        6.6113018360  SOLV      98              0.0000000000
       434       118  TIP3      OH2             7.9355064810       15.8594667438       12.5300218360  SOLV      99              0.0000000000
       435       118  TIP3      H1              8.2979764810       16.7140267438       12.2964618360  SOLV      99              0.0000000000
       436       118  TIP3      H2              8.4670264810       15.5676267438       13.2706518360  SOLV      99              0.0000000000
       437       119  TIP3      OH2             6.1039264810       16.7318667438        5.7601318360  SOLV      100             0.0000000000
       438       119  TIP3      H1              5.1539764810       16.8376067438        5.8114618360  SOLV      100             0.0000000000
       439       119  TIP3      H2              6.4557364810       17.5526067438        6.1048818360  SOLV      100             0.0000000000
       440       120  TIP3      OH2            11.4795864810       11.9585367438       12.2305818360  SOLV      101             0.0000000000
       441       120  TIP3      H1             11.0537164810       11.7307067438       13.0569818360  SOLV      101             0.0000000000
       442       120  TIP3      H2             12.0601664810       11.2197167438       12.0481118360  SOLV      101             0.0000000000
       443       121  TIP3      OH2            13.6824764810       12.8875867438        1.3044818360  SOLV      102             0.0000000000
       444       121  TIP3      H1             14.0357864810       12.5075667438        2.1088318360  SOLV      102             0.0000000000
       445       121  TIP3      H2             12.7338264810       12.7940667438        1.3914118360  SOLV      102             0.0000000000
       446       122  TIP3      OH2            14.1380064810       16.5104867438       14.7000618360  SOLV      103             0.0000000000
       447       122  TIP3      H1             13.5363264810       15.9547767438       14.2046918360  SOLV      103             0.0000000000
       448       122  TIP3      H2             14.4193764810       17.1774667438       14.0738018360  SOLV      103             0.0000000000
       449       123  TIP3      OH2            18.1859164810       17.3668367438        1.5055018360  SOLV      104             0.0000000000
       450       123  TIP3      H1             18.9297064810       17.9528867438        1.3656618360  SOLV      104             0.0000000000
       451       123  TIP3      H2             17.4917264810       17.9354167438        1.8387418360  SOLV      104             0.0000000000
       452       124  TIP3      OH2             2.2605964810        3.7432567438       14.1073218360  SOLV      105             0.0000000000
       453       124  TIP3      H1              1.3678264810        4.0817967438       14.0397218360  SOLV      105             0.0000000000
       454       124  TIP3      H2              2.1618764810        2.8878667438       14.5254018360  SOLV      105             0.0000000000
       455       125  TIP3      OH2            14.5484064810       11.5597867438        3.5312718360  SOLV      106             0.0000000000
       456       125  TIP3      H1             14.2711664810       10.8317167438        4.0873818360  SOLV      106             0.0000000000
       457       125  TIP3      H2             15.4757064810       11.6789867438        3.7365318360  SOLV      106             0.0000000000
       458       126  TIP3      OH2             1.9117964810       15.5476967438       12.5422618360  SOLV      107             0.0000000000
       459       126  TIP3      H1              2.1288264810       14.6159367438       12.5112318360  SOLV      107             0.0000000000
       460       126  TIP3      H2              2.1581464810       15.8221967438       13.4255418360  SOLV      107             0.0000000000
       461       127  TIP3      OH2             6.7103164810       13.5695767438        2.2077418360  SOLV      108             0.0000000000
       462       127  TIP3      H1              6.8571164810       13.0495567438        2.9978318360  SOLV      108             0.0000000000
       463       127  TIP3      H2              6.7074864810       14.4763367438        2.5143318360  SOLV      108             0.0000000000
       464       128  TIP3      OH2             3.1634264810       10.8219067438        2.7182818360  SOLV      109             0.0000000000
       465       128  TIP3      H1              2.4773564810       11.1741567438        3.2852518360  SOLV      109             0.0000000000
       466       128  TIP3      H2              3.6862164810       11.5848667438        2.4717118360  SOLV      109             0.0000000000
       467       129  TIP3      OH2            10.9949364810        3.4842867438       12.9971818360  SOLV      110             0.0000000000
       468       129  TIP3      H1             11.6937264810        3.5581567438       13.6471518360  SOLV      110             0.0000000000
       469       129  TIP3      H2             10.6140764810        2.6197867438       13.1514718360  SOLV      110             0.0000000000
       470       130  TIP3      OH2            11.7794264810        3.1364567438        4.0944118360  SOLV      111             0.0000000000
       471       130  TIP3      H1             11.9992564810        3.6079967438        3.2909518360  SOLV      111             0.0000000000
       472       130  TIP3      H2             12.3378264810        3.5307167438        4.7644718360  SOLV      111             0.0000000000
       473       131  TIP3      OH2             9.4480364810       15.2669367438        2.9571618360  SOLV      112             0.0000000000
       474       131  TIP3      H1              8.6316464810       15.7639067438        3.0095918360  SOLV      112             0.0000000000
       475       131  TIP3      H2              9.9776664810       15.7422867438        2.3170418360  SOLV      112             0.0000000000
       476       132  TIP3      OH2             8.9794164810        4.8643367438        4.9292518360  SOLV      113             0.0000000000
       477       132  TIP3      H1              9.7916764810        5.3686567438        4.9754218360  SOLV      113             0.0000000000
       478       132  TIP3      H2              8.7347164810        4.7193067438        5.8432118360  SOLV      113             0.0000000000
       479       133  TIP3      OH2             9.5150564810        5.8506067438       14.1139118360  SOLV      114             0.0000000000
       480       133  TIP3      H1              9.6340864810        6.4241467438       14.8709518360  SOLV      114             0.0000000000
       481       133  TIP3      H2             10.1705164810        5.1625467438       14.2286918360  SOLV      114             0.0000000000
       482       134  TIP3      OH2             9.8630864810        1.9456367438        5.8673618360  SOLV      115             0.0000000000
       483       134  TIP3      H1              9.5164364810        2.5626967438        6.5117918360  SOLV      115             0.0000000000
       484       134  TIP3      H2             10.5217764810        2.4462067438        5.3859118360  SOLV      115             0.0000000000
       485       135  TIP3      OH2             6.7863464810       16.3106567438        2.9388518360  SOLV      116             0.0000000000
       486       135  TIP3      H1              6.9472164810       17.1104067438        2.4381118360  SOLV      116             0.0000000000
       487       135  TIP3      H2              6.5891264810       16.6172567438        3.8239118360  SOLV      116             0.0000000000
       488       136  TIP3      OH2            15.7196364810        3.7576367438       14.9488818360  SOLV      118             0.0000000000
       489       136  TIP3      H1             14.8032164810        4.0198067438       14.8612518360  SOLV      118             0.0000000000
       490       136  TIP3      H2             16.0551364810        3.7545367438       14.0524118360  SOLV      118             0.0000000000
       491       137  TIP3      OH2            14.3217364810        7.5077367438        9.0446118360  SOLV      119             0.0000000000
       492       137  TIP3      H1             13.5241764810        7.0927567438        8.7161118360  SOLV      119             0.0000000000
       493       137  TIP3      H2             14.7668464810        6.8171067438        9.5356618360  SOLV      119             0.0000000000
       494       138  TIP3      OH2             3.7793164810       13.4357967438        1.6150618360  SOLV      120             0.0000000000
       495       138  TIP3      H1              4.3714664810       14.1352767438        1.8913018360  SOLV      120             0.0000000000
       496       138  TIP3      H2              4.2386164810       13.0027467438        0.8955218360  SOLV      120             0.0000000000
       497       139  TIP3      OH2            15.4081964810       16.7639867438       10.6669618360  SOLV      122             0.0000000000
       498       139  TIP3      H1             15.2526264810       17.4424267438       10.0098918360  SOLV      122             0.0000000000
       499       139  TIP3      H2             16.3408364810       16.8359167438       10.8700218360  SOLV      122             0.0000000000
       500       140  TIP3      OH2             2.9034364810        0.8817567438        9.4041018360  SOLV      123             0.0000000000
       501       140  TIP3      H1              2.6744164810        0.9410067438        8.4766018360  SOLV      123             0.0000000000
       502       140  TIP3      H2              2.4607764810        0.0903067438        9.7105118360  SOLV      123             0.0000000000
       503       141  TIP3      OH2             1.8337664810       14.8224667438        5.5646818360  SOLV      124             0.0000000000
       504       141  TIP3      H1              1.0016264810       15.2947367438        5.5918218360  SOLV      124             0.0000000000
       505       141  TIP3      H2              2.3795964810       15.3322267438        4.9659918360  SOLV      124             0.0000000000
       506       142  TIP3      OH2             1.1221364810       17.4348367438       16.8944818360  SOLV      125             0.0000000000
       507       142  TIP3      H1              1.6623564810       17.2182367438       17.6544018360  SOLV      125             0.0000000000
       508       142  TIP3      H2              0.6409364810       16.6294367438       16.7047318360  SOLV      125             0.0000000000
       509       143  TIP3      OH2             5.7194764810       16.3542767438       18.5149018360  SOLV      126             0.0000000000
       510       143  TIP3      H1              6.4871964810       15.8953567438       18.8558218360  SOLV      126             0.0000000000
       511       143  TIP3      H2              5.6980964810       16.1282567438       17.5850218360  SOLV      126             0.0000000000
       512       144  TIP3      OH2            12.2963464810       14.7343867438       17.2440518360  SOLV      127             0.0000000000
       513       144  TIP3      H1             11.9452964810       13.8776867438       17.4870918360  SOLV      127             0.0000000000
       514       144  TIP3      H2             13.0226664810       14.8770567438       17.8509518360  SOLV      127             0.0000000000
       515       145  TIP3      OH2            14.4157264810       15.6793267438        0.1238818360  SOLV      128             0.0000000000
       516       145  TIP3      H1             14.6987664810       14.8848467438        0.5765718360  SOLV      128             0.0000000000
       517       145  TIP3      H2             15.1555164810       15.9124267438       -0.4370081640  SOLV      128             0.0000000000
       518       146  TIP3      OH2             1.0290864810       11.2452467438       17.8489118360  SOLV      129             0.0000000000
       519       146  TIP3      H1              1.1731364810       10.3433167438       17.5625818360  SOLV      129             0.0000000000
       520       146  TIP3      H2              0.2568264810       11.5314567438       17.3611418360  SOLV      129             0.0000000000
       521       147  TIP3      OH2             7.6846964810       11.2150567438       17.2815518360  SOLV      130             0.0000000000
       522       147  TIP3      H1              7.3560764810       11.4858667438       16.4242918360  SOLV      130             0.0000000000
       523       147  TIP3      H2              7.8365164810       10.2740367438       17.1940518360  SOLV      130             0.0000000000
       524       148  TIP3      OH2            10.7227964810       12.6359867438       -0.2828281640  SOLV      131             0.0000000000
       525       148  TIP3      H1             10.4542064810       12.8161967438        0.6180618360  SOLV      131             0.0000000000
       526       148  TIP3      H2             10.5163564810       11.7106067438       -0.4142481640  SOLV      131             0.0000000000
       527       149  TIP3      OH2            13.4192164810       11.1307867438       14.6647818360  SOLV      132             0.0000000000
       528       149  TIP3      H1             14.1646964810       11.7191567438       14.5451818360  SOLV      132             0.0000000000
       529       149  TIP3      H2             12.6618964810       11.7127567438       14.7280918360  SOLV      132             0.0000000000
       530       150  TIP3      OH2             1.8617364810        8.4455767438       17.2688418360  SOLV      133             0.0000000000
       531       150  TIP3      H1              2.2698564810        7.5882367438       17.1479018360  SOLV      133             0.0000000000
       532       150  TIP3      H2              1.6014964810        8.4597067438       18.1898718360  SOLV      133             0.0000000000
       533       151  TIP3      OH2             6.5198364810        9.5614367438        2.2871718360  SOLV      134             0.0000000000
       534       151  TIP3      H1              6.0600364810        9.0772667438        2.9730218360  SOLV      134             0.0000000000
       535       151  TIP3      H2              6.7747064810        8.8929767438        1.6512218360  SOLV      134             0.0000000000
       536       152  TIP3      OH2             5.8087664810        7.4541467438       14.6431318360  SOLV      135             0.0000000000
       537       152  TIP3      H1              5.1903764810        8.1288067438       14.9236018360  SOLV      135             0.0000000000
       538       152  TIP3      H2              6.1528864810        7.7755367438       13.8097518360  SOLV      135             0.0000000000
       539       153  TIP3      OH2             7.5908764810        7.8046167438        0.5494918360  SOLV      136             0.0000000000
       540       153  TIP3      H1              7.4103764810        7.6497367438       -0.3776781640  SOLV      136             0.0000000000
       541       153  TIP3      H2              8.5409264810        7.9124867438        0.5942818360  SOLV      136             0.0000000000
       542       154  TIP3      OH2            10.8285864810        9.9256767438       17.9206118360  SOLV      137             0.0000000000
       543       154  TIP3      H1             11.7817064810       10.0095867438       17.8932118360  SOLV      137             0.0000000000
       544       154  TIP3      H2             10.6680464810        9.2138567438       18.5401018360  SOLV      137             0.0000000000
       545       155  TIP3      OH2             6.1481364810        4.8092267438       15.7254418360  SOLV      138             0.0000000000
       546       155  TIP3      H1              6.2982264810        4.0803567438       15.1234118360  SOLV      138             0.0000000000
       547       155  TIP3      H2              6.1503764810        5.5863967438       15.1666618360  SOLV      138             0.0000000000
       548       156  TIP3      OH2             6.5607064810        3.1788067438       13.2181818360  SOLV      139             0.0000000000
       549       156  TIP3      H1              7.0964564810        3.6304767438       12.5661118360  SOLV      139             0.0000000000
       550       156  TIP3      H2              5.7086664810        3.0707867438       12.7955918360  SOLV      139             0.0000000000
       551       157  TIP3      OH2             8.1425464810        8.6184267438       13.4577018360  SOLV      140             0.0000000000
       552       157  TIP3      H1              8.8930264810        8.4621767438       12.8844818360  SOLV      140             0.0000000000
       553       157  TIP3      H2              7.8033764810        9.4700867438       13.1822518360  SOLV      140             0.0000000000
       554       158  TIP3      OH2            12.5581664810        6.4336067438       18.4862318360  SOLV      141             0.0000000000
       555       158  TIP3      H1             12.7502964810        5.5025467438       18.3746818360  SOLV      141             0.0000000000
       556       158  TIP3      H2             13.4157964810        6.8585567438       18.4757718360  SOLV      141             0.0000000000
       557       159  TIP3      OH2            13.8748864810        9.2221267438       16.5635018360  SOLV      142             0.0000000000
       558       159  TIP3      H1             13.5933864810        9.9315867438       15.9858818360  SOLV      142             0.0000000000
       559       159  TIP3      H2             14.8173164810        9.1494267438       16.4126218360  SOLV      142             0.0000000000
       560       160  TIP3      OH2             4.6267664810        6.0075767438       17.6370018360  SOLV      143             0.0000000000
       561       160  TIP3      H1              3.8596664810        5.4750567438       17.4267618360  SOLV      143             0.0000000000
       562       160  TIP3      H2              5.3056664810        5.6976167438       17.0376318360  SOLV      143             0.0000000000
       563       161  TIP3      OH2             7.3662564810        0.6353767438       13.6495418360  SOLV      144             0.0000000000
       564       161  TIP3      H1              7.2682164810        1.5816967438       13.5441618360  SOLV      144             0.0000000000
       565       161  TIP3      H2              6.6238764810        0.2627567438       13.1738918360  SOLV      144             0.0000000000
       566       162  TIP3      OH2             8.6303064810        4.9569167438       17.2133818360  SOLV      145             0.0000000000
       567       162  TIP3      H1              8.3948464810        4.7375867438       18.1148718360  SOLV      145             0.0000000000
       568       162  TIP3      H2              7.8469964810        4.7500367438       16.7036318360  SOLV      145             0.0000000000
       569       163  TIP3      OH2            11.3459664810        4.0842667438       16.2887318360  SOLV      146             0.0000000000
       570       163  TIP3      H1             10.3985064810        4.1162367438       16.4210618360  SOLV      146             0.0000000000
       571       163  TIP3      H2             11.6586364810        3.4589767438       16.9425518360  SOLV      146             0.0000000000
       572       164  TIP3      OH2            12.9801164810        2.7183767438       18.2939218360  SOLV      147             0.0000000000
       573       164  TIP3      H1             12.8832964810        1.7661067438       18.2881118360  SOLV      147             0.0000000000
       574       164  TIP3      H2             12.6584264810        2.9870567438       19.1544718360  SOLV      147             0.0000000000
       575       165  TIP3      OH2             2.8070464810        3.9279567438       17.3414718360  SOLV      148             0.0000000000
       576       165  TIP3      H1              3.0187864810        3.2215667438       16.7312218360  SOLV      148             0.0000000000
       577       165  TIP3      H2              2.6957964810        3.4905567438       18.1855918360  SOLV      148             0.0000000000
       578       166  TIP3      OH2             7.9418164810        1.6119567438       18.3744518360  SOLV      149             0.0000000000
       579       166  TIP3      H1              7.8100364810        1.1363367438       17.5543018360  SOLV      149             0.0000000000
       580       166  TIP3      H2              7.3425564810        2.3563167438       18.3191618360  SOLV      149             0.0000000000
       581       167  TIP3      OH2             7.4880464810       18.4949867438        1.5508518360  SOLV      150             0.0000000000
       582       167  TIP3      H1              8.4211164810       18.6528567438        1.6946918360  SOLV      150             0.0000000000
       583       167  TIP3      H2              7.2239264810       19.1702867438        0.9260018360  SOLV      150             0.0000000000
       584       168  TIP3      OH2             1.0565364810       13.1313667438        1.0336618360  SOLV      151             0.0000000000
       585       168  TIP3      H1              1.9704564810       13.2102567438        1.3070518360  SOLV      151             0.0000000000
       586       168  TIP3      H2              1.0638464810       12.4443267438        0.3672218360  SOLV      151             0.0000000000
       587       169  TIP3      OH2             0.5755164810       16.6049167438        7.9156718360  SOLV      152             0.0000000000
       588       169  TIP3      H1              0.2411964810       15.7246467438        8.0876918360  SOLV      152             0.0000000000
       589       169  TIP3      H2              0.7977564810       16.9504167438        8.7802318360  SOLV      152             0.0000000000
       590       170  TIP3      OH2            18.1239964810       17.4145567438       10.8961518360  SOLV      153             0.0000000000
       591       170  TIP3      H1             18.1026664810       17.5993967438       11.8350918360  SOLV      153             0.0000000000
       592       170  TIP3      H2             18.8146164810       17.9829567438       10.5552918360  SOLV      153             0.0000000000
       593       171  TIP3      OH2            17.6872864810       16.9816667438       13.8180618360  SOLV      154             0.0000000000
       594       171  TIP3      H1             17.2001564810       16.2460767438       13.4468018360  SOLV      154             0.0000000000
       595       171  TIP3      H2             18.2365564810       16.5880567438       14.4960018360  SOLV      154             0.0000000000
       596       172  TIP3      OH2            16.1380164810       12.7714767438       18.4560918360  SOLV      155             0.0000000000
       597       172  TIP3      H1             15.2721264810       12.6664467438       18.8503218360  SOLV      155             0.0000000000
       598       172  TIP3      H2             16.5146064810       13.5298067438       18.9025618360  SOLV      155             0.0000000000
       599       173  TIP3      OH2            17.4389864810       11.0278467438        3.9703418360  SOLV      156             0.0000000000
       600       173  TIP3      H1             18.2891264810       11.4489367438        4.0975018360  SOLV      156             0.0000000000
       601       173  TIP3      H2             17.4444964810       10.2878567438        4.5774818360  SOLV      156             0.0000000000
       602       174  TIP3      OH2            17.8335464810        9.0815867438        5.7939118360  SOLV      157             0.0000000000
       603       174  TIP3      H1             17.1070064810        8.6018467438        6.1916718360  SOLV      157             0.0000000000
       604       174  TIP3      H2             18.4148764810        9.2870567438        6.5260718360  SOLV      157             0.0000000000
       605       175  TIP3      OH2            17.5926664810       11.8663367438       10.7416718360  SOLV      158             0.0000000000
       606       175  TIP3      H1             18.4260864810       11.4883367438       10.4610318360  SOLV      158             0.0000000000
       607       175  TIP3      H2             17.7046964810       12.8094567438       10.6225818360  SOLV      158             0.0000000000
       608       176  TIP3      OH2            16.0788964810       14.7440867438       13.0485118360  SOLV      159             0.0000000000
       609       176  TIP3      H1             15.4314264810       15.0692367438       13.6740318360  SOLV      159             0.0000000000
       610       176  TIP3      H2             15.5612964810       14.3038567438       12.3743418360  SOLV      159             0.0000000000
       611       177  TIP3      OH2            18.1018564810        8.9824367438        2.1850418360  SOLV      160             0.0000000000
       612       177  TIP3      H1             17.5799664810        9.3388467438        1.4661318360  SOLV      160             0.0000000000
       613       177  TIP3      H2             18.0687764810        9.6572167438        2.8631318360  SOLV      160             0.0000000000
       614       178  TIP3      OH2            16.4507564810        6.2219967438        0.7357518360  SOLV      161             0.0000000000
       615       178  TIP3      H1             16.5471964810        6.8886967438        0.0557218360  SOLV      161             0.0000000000
       616       178  TIP3      H2             16.3107164810        5.4066267438        0.2543018360  SOLV      161             0.0000000000
       617       179  TIP3      OH2            15.6202264810        7.6022367438        6.3567818360  SOLV      162             0.0000000000
       618       179  TIP3      H1             15.4701064810        6.6570967438        6.3365618360  SOLV      162             0.0000000000
       619       179  TIP3      H2             15.2666764810        7.8833767438        7.2006918360  SOLV      162             0.0000000000
       620       180  TIP3      OH2             0.6554664810        9.6804567438       10.3671618360  SOLV      163             0.0000000000
       621       180  TIP3      H1              0.8397564810        9.5986267438        9.4314518360  SOLV      163             0.0000000000
       622       180  TIP3      H2              1.5047564810        9.5561567438       10.7908018360  SOLV      163             0.0000000000
       623       181  TIP3      OH2            16.4765164810        9.5725667438       15.9956118360  SOLV      164             0.0000000000
       624       181  TIP3      H1             17.0592464810        8.8377967438       16.1873318360  SOLV      164             0.0000000000
       625       181  TIP3      H2             17.0404464810       10.3445967438       16.0421918360  SOLV      164             0.0000000000
       626       182  TIP3      OH2            17.9732264810        7.4751467438       16.6801518360  SOLV      165             0.0000000000
       627       182  TIP3      H1             17.1098964810        7.0963567438       16.5146218360  SOLV      165             0.0000000000
       628       182  TIP3      H2             18.5775964810        6.7366267438       16.6057318360  SOLV      165             0.0000000000
       629       183  TIP3      OH2            15.6981364810        3.6299767438       -0.1466981640  SOLV      166             0.0000000000
       630       183  TIP3      H1             16.3087164810        3.2586567438        0.4901218360  SOLV      166             0.0000000000
       631       183  TIP3      H2             14.8612864810        3.2086667438        0.0493018360  SOLV      166             0.0000000000
       632       184  TIP3      OH2            15.3307064810        5.1848167438        4.8192918360  SOLV      167             0.0000000000
       633       184  TIP3      H1             15.6104164810        4.2778567438        4.9434618360  SOLV      167             0.0000000000
       634       184  TIP3      H2             16.0898764810        5.6189667438        4.4302118360  SOLV      167             0.0000000000
       635       185  TIP3      OH2            15.9425364810        5.7665567438       10.2551818360  SOLV      168             0.0000000000
       636       185  TIP3      H1             16.8753364810        5.9785467438       10.2207818360  SOLV      168             0.0000000000
       637       185  TIP3      H2             15.7072864810        5.8677667438       11.1774818360  SOLV      168             0.0000000000
       638       186  TIP3      OH2            15.9717264810        6.5030867438       13.0311218360  SOLV      169             0.0000000000
       639       186  TIP3      H1             15.1288564810        6.7711267438       13.3971018360  SOLV      169             0.0000000000
       640       186  TIP3      H2             16.4141564810        7.3252767438       12.8202318360  SOLV      169             0.0000000000
       641       187  TIP3      OH2             0.2529464810        4.9509567438       16.5080418360  SOLV      170             0.0000000000
       642       187  TIP3      H1              1.1724364810        4.8287867438       16.7443518360  SOLV      170             0.0000000000
       643       187  TIP3      H2             -0.1966035190        4.2009267438       16.8973918360  SOLV      170             0.0000000000
       644       188  TIP3      OH2            18.2548864810        0.4831067438       18.3846218360  SOLV      171             0.0000000000
       645       188  TIP3      H1             18.6045864810       -0.1705432562       17.7790918360  SOLV      171             0.0000000000
       646       188  TIP3      H2             18.4018364810        1.3205167438       17.9448818360  SOLV      171             0.0000000000
       647       189  TIP3      OH2            15.9441864810        2.4477467438        4.8674918360  SOLV      172             0.0000000000
       648       189  TIP3      H1             16.1266864810        1.9988967438        5.6929918360  SOLV      172             0.0000000000
       649       189  TIP3      H2             15.3444764810        1.8631867438        4.4039518360  SOLV      172             0.0000000000
       650       190  TIP3      OH2             1.4741964810        3.2631167438        9.3993318360  SOLV      173             0.0000000000
       651       190  TIP3      H1              1.9193564810        2.4713667438        9.7013018360  SOLV      173             0.0000000000
       652       190  TIP3      H2              1.9404964810        3.9796367438        9.8298918360  SOLV      173             0.0000000000
       653       191  TIP3      OH2            -0.2217735190        6.2624167438       10.4683518360  SOLV      174             0.0000000000
       654       191  TIP3      H1              0.2702064810        6.0414667438        9.6775518360  SOLV      174             0.0000000000
       655       191  TIP3      H2              0.1403164810        7.1027567438       10.7493018360  SOLV      174             0.0000000000
       656       192  TIP3      OH2            17.7746064810        2.5925667438       16.7337518360  SOLV      175             0.0000000000
       657       192  TIP3      H1             16.8571764810        2.8632767438       16.6981018360  SOLV      175             0.0000000000
       658       192  TIP3      H2             17.8975464810        2.0574067438       15.9497218360  SOLV      175             0.0000000000
       659       193  TIP3      OH2            17.8108064810        2.5155567438        1.3955218360  SOLV      176             0.0000000000
       660       193  TIP3      H1             18.2230664810        1.7941267438        0.9203218360  SOLV      176             0.0000000000
       661       193  TIP3      H2             18.4924564810        3.1850167438        1.4539518360  SOLV      176             0.0000000000
       662       194  TIP3      OH2            14.8625964810       17.5044967438        6.4683318360  SOLV      177             0.0000000000
       663       194  TIP3      H1             15.5148864810       17.1567067438        5.8602418360  SOLV      177             0.0000000000
       664       194  TIP3      H2             15.3729764810       17.9928167438        7.1143018360  SOLV      177             0.0000000000
       665       195  TIP3      OH2             2.2473464810       14.4336367438       17.0114218360  SOLV      178             0.0000000000
       666       195  TIP3      H1              1.4265964810       14.6082867438       16.5508918360  SOLV      178             0.0000000000
       667       195  TIP3      H2              1.9951264810       14.3601067438       17.9318618360  SOLV      178             0.0000000000
       668       196  TIP3      OH2             5.2016364810       15.4077567438       13.2698218360  SOLV      179             0.0000000000
       669       196  TIP3      H1              4.7767464810       16.2176067438       12.9872818360  SOLV      179             0.0000000000
       670       196  TIP3      H2              6.1059164810       15.4931667438       12.9678018360  SOLV      179             0.0000000000
       671       197  TIP3      OH2             9.5127764810       16.8067567438       16.2291918360  SOLV      180             0.0000000000
       672       197  TIP3      H1              9.6975264810       16.4733667438       17.1072218360  SOLV      180             0.0000000000
       673       197  TIP3      H2             10.3592264810       17.1166167438       15.9071118360  SOLV      180             0.0000000000
       674       198  TIP3      OH2            11.8578164810       18.0926467438       15.4733318360  SOLV      181             0.0000000000
       675       198  TIP3      H1             12.5347064810       17.4598767438       15.2332518360  SOLV      181             0.0000000000
       676       198  TIP3      H2             12.1796964810       18.4936967438       16.2806618360  SOLV      181             0.0000000000
       677       199  TIP3      OH2            16.7751964810        0.6821967438       14.5528318360  SOLV      182             0.0000000000
       678       199  TIP3      H1             15.9625464810        1.0072267438       14.1653018360  SOLV      182             0.0000000000
       679       199  TIP3      H2             17.0080464810       -0.0779532562       14.0197418360  SOLV      182             0.0000000000
       680       200  TIP3      OH2             2.6033064810       18.6641467438       13.3173518360  SOLV      183             0.0000000000
       681       200  TIP3      H1              1.8829464810       19.1042467438       12.8661218360  SOLV      183             0.0000000000
       682       200  TIP3      H2              2.2377064810       18.4136167438       14.1657518360  SOLV      183             0.0000000000
       683       201  TIP3      OH2             5.0705664810       18.2645367438       12.3470718360  SOLV      184             0.0000000000
       684       201  TIP3      H1              4.2057864810       18.3363867438       12.7510818360  SOLV      184             0.0000000000
       685       201  TIP3      H2              5.0154664810       18.8112667438       11.5633218360  SOLV      184             0.0000000000
       686       202  TIP3      OH2             9.7811264810       18.1524267438       11.5226718360  SOLV      185             0.0000000000
       687       202  TIP3      H1              9.3245264810       18.6813967438       10.8685118360  SOLV      185             0.0000000000
       688       202  TIP3      H2              9.9439264810       18.7555667438       12.2479018360  SOLV      185             0.0000000000
       689       203  TIP3      OH2            12.1087564810       17.0303867438       12.4677018360  SOLV      186             0.0000000000
       690       203  TIP3      H1             11.2041264810       17.1954067438       12.2019118360  SOLV      186             0.0000000000
       691       203  TIP3      H2             12.5376164810       17.8836067438       12.4020418360  SOLV      186             0.0000000000
       692       204  TIP3      OH2            14.7129464810       18.6002967438       12.7624818360  SOLV      187             0.0000000000
       693       204  TIP3      H1             14.5311464810       19.5161867438       12.5519718360  SOLV      187             0.0000000000
       694       204  TIP3      H2             14.8897264810       18.1900067438       11.9159418360  SOLV      187             0.0000000000
       695       205  TIP3      OH2             2.0181164810       17.2873967438       10.2275318360  SOLV      188             0.0000000000
       696       205  TIP3      H1              1.9997164810       16.8619067438       11.0847618360  SOLV      188             0.0000000000
       697       205  TIP3      H2              2.8229064810       16.9688967438        9.8187518360  SOLV      188             0.0000000000
       698       206  TIP3      OH2             4.1594264810       15.9972667438        8.8825218360  SOLV      189             0.0000000000
       699       206  TIP3      H1              3.9404964810       15.0810067438        9.0521218360  SOLV      189             0.0000000000
       700       206  TIP3      H2              4.9836464810       16.1373067438        9.3486618360  SOLV      189             0.0000000000
       701       207  TIP3      OH2             6.6966764810       16.4671967438        9.7313218360  SOLV      190             0.0000000000
       702       207  TIP3      H1              6.9092464810       15.5790967438        9.4444118360  SOLV      190             0.0000000000
       703       207  TIP3      H2              6.7611864810       16.4329667438       10.6857218360  SOLV      190             0.0000000000
       704       208  TIP3      OH2            10.2050464810        2.1312567438        8.8756518360  SOLV      191             0.0000000000
       705       208  TIP3      H1              9.5307264810        1.5018167438        9.1312318360  SOLV      191             0.0000000000
       706       208  TIP3      H2             10.7689664810        1.6471467438        8.2724418360  SOLV      191             0.0000000000
       707       209  TIP3      OH2            15.3477664810        0.2386567438        8.9883618360  SOLV      192             0.0000000000
       708       209  TIP3      H1             15.9515264810        0.7861967438        8.4864618360  SOLV      192             0.0000000000
       709       209  TIP3      H2             14.4779664810        0.5576967438        8.7477718360  SOLV      192             0.0000000000
       710       210  TIP3      OH2            17.0748064810        1.3775267438        7.3214518360  SOLV      193             0.0000000000
       711       210  TIP3      H1             17.6865564810        0.8630967438        6.7948118360  SOLV      193             0.0000000000
       712       210  TIP3      H2             17.4571464810        2.2547367438        7.3448918360  SOLV      193             0.0000000000
       713       211  TIP3      OH2             2.5317964810        0.7652867438        6.6976418360  SOLV      194             0.0000000000
       714       211  TIP3      H1              1.7547764810        0.5307767438        6.1902318360  SOLV      194             0.0000000000
       715       211  TIP3      H2              3.0621564810       -0.0315032562        6.7064418360  SOLV      194             0.0000000000
       716       212  TIP3      OH2             7.1110564810        0.6919967438        6.5109518360  SOLV      196             0.0000000000
       717       212  TIP3      H1              7.9853964810        1.0804267438        6.4813818360  SOLV      196             0.0000000000
       718       212  TIP3      H2              6.9751364810        0.4767767438        7.4336718360  SOLV      196             0.0000000000
       719       213  TIP3      OH2            12.6678964810        0.7219767438        8.1601218360  SOLV      197             0.0000000000
       720       213  TIP3      H1             12.7440564810        0.8171367438        7.2107218360  SOLV      197             0.0000000000
       721       213  TIP3      H2             12.3928164810       -0.1857332562        8.2890318360  SOLV      197             0.0000000000
       722       214  TIP3      OH2            14.0211564810        0.7477567438        3.8526218360  SOLV      198             0.0000000000
       723       214  TIP3      H1             13.3182664810        1.3626767438        3.6427618360  SOLV      198             0.0000000000
       724       214  TIP3      H2             13.5762964810       -0.0895732562        3.9837118360  SOLV      198             0.0000000000
       725       215  TIP3      OH2             1.2690864810       16.5113167438        3.3987618360  SOLV      199             0.0000000000
       726       215  TIP3      H1              0.5840764810       16.4732067438        2.7312718360  SOLV      199             0.0000000000
       727       215  TIP3      H2              1.2728064810       17.4240767438        3.6869718360  SOLV      199             0.0000000000
       728       216  TIP3      OH2             8.2550564810        2.7723967438        3.4007118360  SOLV      201             0.0000000000
       729       216  TIP3      H1              8.4331864810        2.1257167438        4.0835718360  SOLV      201             0.0000000000
       730       216  TIP3      H2              8.2016764810        3.6061667438        3.8678218360  SOLV      201             0.0000000000
       731       217  TIP3      OH2            10.1334364810       17.7208067438        1.7963818360  SOLV      202             0.0000000000
       732       217  TIP3      H1             10.9994564810       18.0875467438        1.6182018360  SOLV      202             0.0000000000
       733       217  TIP3      H2              9.8867164810       17.2816067438        0.9824618360  SOLV      202             0.0000000000
       734       218  TIP3      OH2            16.8423964810       17.2838367438        4.4754918360  SOLV      203             0.0000000000
       735       218  TIP3      H1             16.6481064810       16.5360467438        3.9104518360  SOLV      203             0.0000000000
       736       218  TIP3      H2             16.8034064810       18.0418467438        3.8922818360  SOLV      203             0.0000000000
       737       219  TIP3      OH2             2.4895964810        1.2794767438       16.2152618360  SOLV      204             0.0000000000
       738       219  TIP3      H1              2.1234164810        0.5137367438       16.6577318360  SOLV      204             0.0000000000
       739       219  TIP3      H2              3.4024464810        1.3084967438       16.5017718360  SOLV      204             0.0000000000
       740       220  TIP3      OH2             4.4626764810        0.6299167438       17.7509718360  SOLV      205             0.0000000000
       741       220  TIP3      H1              5.3610364810        0.3559367438       17.5663118360  SOLV      205             0.0000000000
       742       220  TIP3      H2              4.0759864810       -0.1124832562       18.2152318360  SOLV      205             0.0000000000
       743       221  TIP3      OH2             3.0872064810       17.4313967438        0.4239718360  SOLV      206             0.0000000000
       744       221  TIP3      H1              2.8196664810       17.7176867438        1.2972818360  SOLV      206             0.0000000000
       745       221  TIP3      H2              3.8584664810       16.8853167438        0.5762218360  SOLV      206             0.0000000000
       746       222  TIP3      OH2            16.0600164810       16.0350767438       16.6256718360  SOLV      207             0.0000000000
       747       222  TIP3      H1             15.2782064810       15.8488767438       16.1057318360  SOLV      207             0.0000000000
       748       222  TIP3      H2             15.9880064810       16.9645067438       16.8429218360  SOLV      207             0.0000000000
       749       223  TIP3      OH2            30.1100564810        9.9215167438        6.6563918360  SOLV      208             0.0000000000
       750       223  TIP3      H1             30.1991664810       10.8653367438        6.5241018360  SOLV      208             0.0000000000
       751       223  TIP3      H2             29.4718164810        9.6461567438        5.9983318360  SOLV      208             0.0000000000
       752       224  TIP3      OH2            29.0431864810        9.1765867438       10.0752118360  SOLV      209             0.0000000000
       753       224  TIP3      H1             29.0049364810        8.5302167438       10.7801718360  SOLV      209             0.0000000000
       754       224  TIP3      H2             28.7208364810        8.7100267438        9.3040818360  SOLV      209             0.0000000000
       755       225  TIP3      OH2            21.4116864810        8.7907967438       11.6682018360  SOLV      210             0.0000000000
       756       225  TIP3      H1             21.4528964810        8.1651267438       12.3914418360  SOLV      210             0.0000000000
       757       225  TIP3      H2             22.1144564810        9.4146567438       11.8502418360  SOLV      210             0.0000000000
       758       226  TIP3      OH2            32.7492064810       12.1156267438        8.3767218360  SOLV      211             0.0000000000
       759       226  TIP3      H1             32.3084764810       11.3952267438        8.8272818360  SOLV      211             0.0000000000
       760       226  TIP3      H2             32.7361764810       12.8363467438        9.0064918360  SOLV      211             0.0000000000
       761       227  TIP3      OH2            22.3349964810       13.2406867438       10.2031118360  SOLV      212             0.0000000000
       762       227  TIP3      H1             21.9655164810       12.4387367438        9.8335418360  SOLV      212             0.0000000000
       763       227  TIP3      H2             23.2761064810       13.0721767438       10.2494518360  SOLV      212             0.0000000000
       764       228  TIP3      OH2            18.9450464810        6.9009467438        5.5959918360  SOLV      213             0.0000000000
       765       228  TIP3      H1             18.4973864810        7.7468167438        5.5776418360  SOLV      213             0.0000000000
       766       228  TIP3      H2             18.3841664810        6.3213667438        5.0805018360  SOLV      213             0.0000000000
       767       229  TIP3      OH2            19.6556564810        9.0629067438        7.7217918360  SOLV      214             0.0000000000
       768       229  TIP3      H1             19.8690064810        8.2930667438        8.2490918360  SOLV      214             0.0000000000
       769       229  TIP3      H2             20.3934164810        9.1525767438        7.1185518360  SOLV      214             0.0000000000
       770       230  TIP3      OH2            29.8607564810       17.2197967438        8.5887618360  SOLV      215             0.0000000000
       771       230  TIP3      H1             30.4803964810       16.5432667438        8.3156818360  SOLV      215             0.0000000000
       772       230  TIP3      H2             29.6524964810       17.0018767438        9.4972518360  SOLV      215             0.0000000000
       773       231  TIP3      OH2            27.4326264810       11.6087267438       10.4813118360  SOLV      216             0.0000000000
       774       231  TIP3      H1             27.7364164810       10.9228667438        9.8867218360  SOLV      216             0.0000000000
       775       231  TIP3      H2             28.1540264810       11.7275967438       11.0991118360  SOLV      216             0.0000000000
       776       232  TIP3      OH2            36.0956064810        3.2102567438       11.3419318360  SOLV      217             0.0000000000
       777       232  TIP3      H1             36.1448264810        3.8203767438       12.0778418360  SOLV      217             0.0000000000
       778       232  TIP3      H2             36.5211164810        3.6713467438       10.6190418360  SOLV      217             0.0000000000
       779       233  TIP3      OH2            30.5733264810        6.0029667438       10.8087918360  SOLV      218             0.0000000000
       780       233  TIP3      H1             30.7159164810        5.0566667438       10.8289518360  SOLV      218             0.0000000000
       781       233  TIP3      H2             30.4672264810        6.2099467438        9.8802818360  SOLV      218             0.0000000000
       782       234  TIP3      OH2            23.7281564810        4.1046067438        8.0812718360  SOLV      219             0.0000000000
       783       234  TIP3      H1             23.7712664810        4.9644567438        7.6629018360  SOLV      219             0.0000000000
       784       234  TIP3      H2             23.2705664810        3.5520767438        7.4475918360  SOLV      219             0.0000000000
       785       235  TIP3      OH2            31.4504264810        4.2351667438        6.4821018360  SOLV      220             0.0000000000
       786       235  TIP3      H1             32.0968564810        3.9064867438        7.1068618360  SOLV      220             0.0000000000
       787       235  TIP3      H2             31.9603664810        4.7530667438        5.8592418360  SOLV      220             0.0000000000
       788       236  TIP3      OH2            20.3483064810        6.5011867438        8.8434118360  SOLV      221             0.0000000000
       789       236  TIP3      H1             21.0019664810        5.9513567438        9.2754218360  SOLV      221             0.0000000000
       790       236  TIP3      H2             20.3722364810        6.2270867438        7.9266118360  SOLV      221             0.0000000000
       791       237  TIP3      OH2            25.5047564810        8.0513167438        8.0585618360  SOLV      222             0.0000000000
       792       237  TIP3      H1             26.1208564810        7.5248567438        8.5679618360  SOLV      222             0.0000000000
       793       237  TIP3      H2             24.9186364810        7.4111867438        7.6549218360  SOLV      222             0.0000000000
       794       238  TIP3      OH2            36.4870664810        4.6881767438       13.5779118360  SOLV      223             0.0000000000
       795       238  TIP3      H1             35.7985264810        5.3462467438       13.4825718360  SOLV      223             0.0000000000
       796       238  TIP3      H2             36.5025264810        4.4909667438       14.5144518360  SOLV      223             0.0000000000
       797       239  TIP3      OH2            22.5383464810        3.0224467438       12.1553518360  SOLV      224             0.0000000000
       798       239  TIP3      H1             22.3195164810        3.5525067438       11.3889518360  SOLV      224             0.0000000000
       799       239  TIP3      H2             21.8704364810        3.2489967438       12.8024918360  SOLV      224             0.0000000000
       800       240  TIP3      OH2            29.9073264810       12.5225567438        5.6992618360  SOLV      225             0.0000000000
       801       240  TIP3      H1             29.6118364810       12.1997867438        4.8479518360  SOLV      225             0.0000000000
       802       240  TIP3      H2             29.5831064810       13.4222267438        5.7405218360  SOLV      225             0.0000000000
       803       241  TIP3      OH2            25.1074864810       10.6980167438       12.4427218360  SOLV      226             0.0000000000
       804       241  TIP3      H1             24.3673964810       11.2961667438       12.5462418360  SOLV      226             0.0000000000
       805       241  TIP3      H2             25.8214364810       11.2519767438       12.1270818360  SOLV      226             0.0000000000
       806       242  TIP3      OH2            33.2142664810        3.5260967438        8.4626918360  SOLV      227             0.0000000000
       807       242  TIP3      H1             32.9990664810        2.7604367438        8.9952918360  SOLV      227             0.0000000000
       808       242  TIP3      H2             33.8700064810        3.9985567438        8.9755418360  SOLV      227             0.0000000000
       809       243  TIP3      OH2            22.1320764810        4.9146267438       10.1075718360  SOLV      228             0.0000000000
       810       243  TIP3      H1             22.7457064810        5.5473867438       10.4808118360  SOLV      228             0.0000000000
       811       243  TIP3      H2             22.6441464810        4.4421267438        9.4512618360  SOLV      228             0.0000000000
       812       244  TIP3      OH2            23.5149164810       12.6623167438       13.2298718360  SOLV      229             0.0000000000
       813       244  TIP3      H1             23.5096764810       13.5416667438       12.8518018360  SOLV      229             0.0000000000
       814       244  TIP3      H2             22.6613264810       12.5787267438       13.6548618360  SOLV      229             0.0000000000
       815       245  TIP3      OH2            19.6360064810       12.3331067438        4.0118018360  SOLV      230             0.0000000000
       816       245  TIP3      H1             19.3640964810       12.5622067438        3.1230918360  SOLV      230             0.0000000000
       817       245  TIP3      H2             19.6815764810       13.1709867438        4.4723318360  SOLV      230             0.0000000000
       818       246  TIP3      OH2            33.2609764810       13.9546967438       10.7246518360  SOLV      231             0.0000000000
       819       246  TIP3      H1             32.3193464810       14.0130867438       10.8863418360  SOLV      231             0.0000000000
       820       246  TIP3      H2             33.5375864810       14.8607467438       10.5876218360  SOLV      231             0.0000000000
       821       247  TIP3      OH2            33.5616764810        2.2412267438       12.1420418360  SOLV      232             0.0000000000
       822       247  TIP3      H1             32.8255964810        2.8519367438       12.1041718360  SOLV      232             0.0000000000
       823       247  TIP3      H2             34.2450764810        2.6561267438       11.6156818360  SOLV      232             0.0000000000
       824       248  TIP3      OH2            26.5648164810        0.3279567438        9.6078418360  SOLV      233             0.0000000000
       825       248  TIP3      H1             26.4472364810       -0.6204432562        9.5536718360  SOLV      233             0.0000000000
       826       248  TIP3      H2             25.7098264810        0.6605667438        9.8809518360  SOLV      233             0.0000000000
       827       249  TIP3      OH2            31.5130964810       15.7360467438        7.3498118360  SOLV      234             0.0000000000
       828       249  TIP3      H1             31.9383264810       15.0288367438        6.8647718360  SOLV      234             0.0000000000
       829       249  TIP3      H2             31.8300964810       16.5373167438        6.9330318360  SOLV      234             0.0000000000
       830       250  TIP3      OH2            32.6727464810       13.6368967438        5.8584718360  SOLV      235             0.0000000000
       831       250  TIP3      H1             32.4152264810       12.9469067438        5.2470618360  SOLV      235             0.0000000000
       832       250  TIP3      H2             32.7438264810       13.1940167438        6.7040618360  SOLV      235             0.0000000000
       833       251  TIP3      OH2            34.3587664810       12.2035667438       14.3358218360  SOLV      236             0.0000000000
       834       251  TIP3      H1             34.4983964810       11.6118167438       13.5965218360  SOLV      236             0.0000000000
       835       251  TIP3      H2             34.5260464810       13.0761567438       13.9797018360  SOLV      236             0.0000000000
       836       252  TIP3      OH2            28.8313064810        9.1655167438        4.1084218360  SOLV      237             0.0000000000
       837       252  TIP3      H1             28.1198564810        9.7004867438        3.7564718360  SOLV      237             0.0000000000
       838       252  TIP3      H2             29.5222664810        9.2207267438        3.4483118360  SOLV      237             0.0000000000
       839       253  TIP3      OH2            28.8852264810        7.6229467438        1.1469218360  SOLV      238             0.0000000000
       840       253  TIP3      H1             29.5862164810        7.6456367438        1.7983218360  SOLV      238             0.0000000000
       841       253  TIP3      H2             29.1875164810        6.9949167438        0.4908518360  SOLV      238             0.0000000000
       842       254  TIP3      OH2            36.2006964810        8.5433667438       12.4018618360  SOLV      239             0.0000000000
       843       254  TIP3      H1             35.5481064810        9.2379267438       12.4909518360  SOLV      239             0.0000000000
       844       254  TIP3      H2             36.6657264810        8.7534567438       11.5920218360  SOLV      239             0.0000000000
       845       255  TIP3      OH2            32.2370764810        9.3748467438        5.0600118360  SOLV      240             0.0000000000
       846       255  TIP3      H1             31.5051764810        9.6032167438        5.6330718360  SOLV      240             0.0000000000
       847       255  TIP3      H2             32.6842964810        8.6611167438        5.5147618360  SOLV      240             0.0000000000
       848       256  TIP3      OH2            32.1344264810        7.5491067438       14.1277118360  SOLV      241             0.0000000000
       849       256  TIP3      H1             32.2143364810        8.3125467438       14.6995618360  SOLV      241             0.0000000000
       850       256  TIP3      H2             31.5331964810        7.8283467438       13.4372218360  SOLV      241             0.0000000000
       851       257  TIP3      OH2            23.8824464810       10.0054667438        6.9425118360  SOLV      242             0.0000000000
       852       257  TIP3      H1             23.5519664810        9.6348067438        6.1242118360  SOLV      242             0.0000000000
       853       257  TIP3      H2             24.4708564810        9.3348667438        7.2893418360  SOLV      242             0.0000000000
       854       258  TIP3      OH2            25.2491964810       13.4335267438        9.6237318360  SOLV      243             0.0000000000
       855       258  TIP3      H1             25.1543264810       12.8548367438        8.8671918360  SOLV      243             0.0000000000
       856       258  TIP3      H2             25.9785564810       13.0620967438       10.1200118360  SOLV      243             0.0000000000
       857       259  TIP3      OH2            24.2489964810        8.7740267438       10.5760118360  SOLV      244             0.0000000000
       858       259  TIP3      H1             24.8142464810        8.8954467438        9.8131318360  SOLV      244             0.0000000000
       859       259  TIP3      H2             24.5678864810        9.4115267438       11.2148618360  SOLV      244             0.0000000000
       860       260  TIP3      OH2            30.5582164810       14.2772167438       11.3100618360  SOLV      245             0.0000000000
       861       260  TIP3      H1             30.3178764810       14.9395267438       11.9579818360  SOLV      245             0.0000000000
       862       260  TIP3      H2             30.3600364810       13.4427367438       11.7350218360  SOLV      245             0.0000000000
       863       261  TIP3      OH2            25.1290664810       13.1732967438       15.2932018360  SOLV      246             0.0000000000
       864       261  TIP3      H1             24.8178164810       13.9556167438       15.7485218360  SOLV      246             0.0000000000
       865       261  TIP3      H2             24.4790864810       13.0202067438       14.6074018360  SOLV      246             0.0000000000
       866       262  TIP3      OH2            31.1080264810        8.5371367438        2.7451318360  SOLV      247             0.0000000000
       867       262  TIP3      H1             31.6875764810        8.6871667438        3.4920218360  SOLV      247             0.0000000000
       868       262  TIP3      H2             31.5220264810        9.0078767438        2.0217718360  SOLV      247             0.0000000000
       869       263  TIP3      OH2            22.0490564810        9.3714067438       14.5217718360  SOLV      248             0.0000000000
       870       263  TIP3      H1             22.1193764810       10.0220867438       15.2202718360  SOLV      248             0.0000000000
       871       263  TIP3      H2             21.1582764810        9.4741567438       14.1868618360  SOLV      248             0.0000000000
       872       264  TIP3      OH2            28.8345164810       15.2739867438        6.1804418360  SOLV      249             0.0000000000
       873       264  TIP3      H1             29.3082764810       15.5696167438        6.9578618360  SOLV      249             0.0000000000
       874       264  TIP3      H2             28.2714464810       16.0121467438        5.9474018360  SOLV      249             0.0000000000
       875       265  TIP3      OH2            23.3686564810       15.2447967438       16.0565818360  SOLV      250             0.0000000000
       876       265  TIP3      H1             23.3761864810       15.1087667438       15.1091318360  SOLV      250             0.0000000000
       877       265  TIP3      H2             22.4526964810       15.1276067438       16.3085818360  SOLV      250             0.0000000000
       878       266  TIP3      OH2            34.8068664810        0.2871767438        2.5581018360  SOLV      251             0.0000000000
       879       266  TIP3      H1             33.9069364810        0.4260767438        2.8531618360  SOLV      251             0.0000000000
       880       266  TIP3      H2             35.0587064810        1.1186367438        2.1562718360  SOLV      251             0.0000000000
       881       267  TIP3      OH2            22.8727164810        9.0748967438        4.5317918360  SOLV      252             0.0000000000
       882       267  TIP3      H1             22.5808464810        9.8430667438        4.0409218360  SOLV      252             0.0000000000
       883       267  TIP3      H2             22.1982364810        8.4155167438        4.3689318360  SOLV      252             0.0000000000
       884       268  TIP3      OH2            35.9960064810       14.6534167438        0.9344918360  SOLV      253             0.0000000000
       885       268  TIP3      H1             36.0693564810       15.5924367438        1.1050218360  SOLV      253             0.0000000000
       886       268  TIP3      H2             36.9015164810       14.3482767438        0.8782218360  SOLV      253             0.0000000000
       887       269  TIP3      OH2            18.9657264810       11.4378167438       13.3467718360  SOLV      254             0.0000000000
       888       269  TIP3      H1             18.4645664810       11.4097567438       12.5317418360  SOLV      254             0.0000000000
       889       269  TIP3      H2             18.9710964810       10.5321367438       13.6565018360  SOLV      254             0.0000000000
       890       270  TIP3      OH2            18.7159964810       14.2181967438       10.2307918360  SOLV      255             0.0000000000
       891       270  TIP3      H1             19.6620564810       14.0738967438       10.2117418360  SOLV      255             0.0000000000
       892       270  TIP3      H2             18.6036264810       15.0024767438       10.7679118360  SOLV      255             0.0000000000
       893       271  TIP3      OH2            36.9138464810       14.8841667438       15.9131618360  SOLV      256             0.0000000000
       894       271  TIP3      H1             36.8645264810       13.9289767438       15.8759218360  SOLV      256             0.0000000000
       895       271  TIP3      H2             36.0870764810       15.1516967438       16.3145418360  SOLV      256             0.0000000000
       896       272  TIP3      OH2            27.8922464810       14.4580867438       14.7893018360  SOLV      257             0.0000000000
       897       272  TIP3      H1             27.9797064810       15.2845467438       15.2642118360  SOLV      257             0.0000000000
       898       272  TIP3      H2             27.0287564810       14.1284667438       15.0382318360  SOLV      257             0.0000000000
       899       273  TIP3      OH2            28.3068264810       18.2304567438        4.5953618360  SOLV      258             0.0000000000
       900       273  TIP3      H1             28.2314264810       18.1091767438        3.6488818360  SOLV      258             0.0000000000
       901       273  TIP3      H2             28.3396964810       19.1797267438        4.7138218360  SOLV      258             0.0000000000
       902       274  TIP3      OH2            21.9602064810       17.0191567438        6.3762618360  SOLV      259             0.0000000000
       903       274  TIP3      H1             22.1122464810       16.6711967438        7.2549118360  SOLV      259             0.0000000000
       904       274  TIP3      H2             21.1092464810       16.6628867438        6.1209818360  SOLV      259             0.0000000000
       905       275  TIP3      OH2            31.4084264810       17.3844767438        1.5976018360  SOLV      260             0.0000000000
       906       275  TIP3      H1             31.7832664810       16.6400867438        1.1268618360  SOLV      260             0.0000000000
       907       275  TIP3      H2             31.4127964810       17.1145367438        2.5159318360  SOLV      260             0.0000000000
       908       276  TIP3      OH2            31.0772364810       17.3101867438        4.3468218360  SOLV      261             0.0000000000
       909       276  TIP3      H1             30.1422164810       17.4103767438        4.5255218360  SOLV      261             0.0000000000
       910       276  TIP3      H2             31.3574264810       16.6007867438        4.9251418360  SOLV      261             0.0000000000
       911       277  TIP3      OH2            34.0658264810        6.3774167438       16.3933818360  SOLV      262             0.0000000000
       912       277  TIP3      H1             33.6585064810        6.8579767438       15.6727118360  SOLV      262             0.0000000000
       913       277  TIP3      H2             34.1063964810        5.4720167438       16.0854618360  SOLV      262             0.0000000000
       914       278  TIP3      OH2            21.2147764810       12.7613567438       14.3900518360  SOLV      263             0.0000000000
       915       278  TIP3      H1             21.4309064810       12.3999167438       15.2496318360  SOLV      263             0.0000000000
       916       278  TIP3      H2             20.3592464810       12.3867367438       14.1804018360  SOLV      263             0.0000000000
       917       279  TIP3      OH2            23.8335764810        1.2314067438       10.3854718360  SOLV      264             0.0000000000
       918       279  TIP3      H1             22.9719464810        1.1442267438        9.9777618360  SOLV      264             0.0000000000
       919       279  TIP3      H2             23.8111464810        2.0874167438       10.8132318360  SOLV      264             0.0000000000
       920       280  TIP3      OH2            28.4963564810        0.9534467438       13.7601718360  SOLV      265             0.0000000000
       921       280  TIP3      H1             28.9166664810        0.5381567438       14.5132318360  SOLV      265             0.0000000000
       922       280  TIP3      H2             27.5633164810        0.7747767438       13.8773718360  SOLV      265             0.0000000000
       923       281  TIP3      OH2            31.8228464810        4.7089667438       14.6136218360  SOLV      266             0.0000000000
       924       281  TIP3      H1             31.3087964810        4.5831867438       15.4112218360  SOLV      266             0.0000000000
       925       281  TIP3      H2             31.6673164810        5.6212767438       14.3692418360  SOLV      266             0.0000000000
       926       282  TIP3      OH2            32.5853364810        9.5699667438        0.3749218360  SOLV      267             0.0000000000
       927       282  TIP3      H1             32.6274164810        9.3473567438       -0.5550781640  SOLV      267             0.0000000000
       928       282  TIP3      H2             33.4345464810        9.9686767438        0.5649118360  SOLV      267             0.0000000000
       929       283  TIP3      OH2            28.1580864810        3.4457867438        1.0452518360  SOLV      268             0.0000000000
       930       283  TIP3      H1             27.9045664810        3.4649467438        1.9680618360  SOLV      268             0.0000000000
       931       283  TIP3      H2             27.9012964810        2.5743267438        0.7438718360  SOLV      268             0.0000000000
       932       284  TIP3      OH2            23.9245864810        6.1968567438       11.4804918360  SOLV      269             0.0000000000
       933       284  TIP3      H1             23.2827964810        6.1565867438       12.1895018360  SOLV      269             0.0000000000
       934       284  TIP3      H2             23.9617864810        7.1233267438       11.2427918360  SOLV      269             0.0000000000
       935       285  TIP3      OH2            23.9214964810        6.4178667438        6.3924918360  SOLV      270             0.0000000000
       936       285  TIP3      H1             23.0287864810        6.0774767438        6.3338718360  SOLV      270             0.0000000000
       937       285  TIP3      H2             24.3721564810        6.0409567438        5.6368118360  SOLV      270             0.0000000000
       938       286  TIP3      OH2            29.4570464810        6.8338967438        5.2095718360  SOLV      271             0.0000000000
       939       286  TIP3      H1             29.0480764810        7.6487567438        4.9180518360  SOLV      271             0.0000000000
       940       286  TIP3      H2             30.1776664810        6.6939067438        4.5952818360  SOLV      271             0.0000000000
       941       287  TIP3      OH2            28.5592064810        7.0095367438       16.6976418360  SOLV      272             0.0000000000
       942       287  TIP3      H1             27.9965864810        6.3046967438       17.0184218360  SOLV      272             0.0000000000
       943       287  TIP3      H2             29.3855464810        6.8887267438       17.1654018360  SOLV      272             0.0000000000
       944       288  TIP3      OH2            30.4618164810        6.2799367438        8.0235418360  SOLV      273             0.0000000000
       945       288  TIP3      H1             30.2662664810        6.8856167438        7.3086018360  SOLV      273             0.0000000000
       946       288  TIP3      H2             30.6430764810        5.4464567438        7.5891718360  SOLV      273             0.0000000000
       947       289  TIP3      OH2            21.6746364810        6.5172067438       13.3476918360  SOLV      274             0.0000000000
       948       289  TIP3      H1             21.6365764810        6.9173667438       14.2164018360  SOLV      274             0.0000000000
       949       289  TIP3      H2             21.1837464810        5.7004467438       13.4379818360  SOLV      274             0.0000000000
       950       290  TIP3      OH2            25.0403764810        3.8914367438        0.1462918360  SOLV      275             0.0000000000
       951       290  TIP3      H1             24.6094464810        3.4464467438        0.8760318360  SOLV      275             0.0000000000
       952       290  TIP3      H2             24.3222464810        4.2630667438       -0.3659581640  SOLV      275             0.0000000000
       953       291  TIP3      OH2            18.2827164810        3.6333867438        7.1981618360  SOLV      276             0.0000000000
       954       291  TIP3      H1             18.9134864810        3.6045967438        7.9175518360  SOLV      276             0.0000000000
       955       291  TIP3      H2             18.7321464810        3.2082567438        6.4677518360  SOLV      276             0.0000000000
       956       292  TIP3      OH2            19.5569264810        4.3795867438        2.6222018360  SOLV      277             0.0000000000
       957       292  TIP3      H1             20.0310964810        4.9705767438        2.0372918360  SOLV      277             0.0000000000
       958       292  TIP3      H2             18.8395664810        4.9098767438        2.9692118360  SOLV      277             0.0000000000
       959       293  TIP3      OH2            29.7257364810        7.9180667438       12.6947818360  SOLV      278             0.0000000000
       960       293  TIP3      H1             30.0492164810        7.2870367438       12.0518318360  SOLV      278             0.0000000000
       961       293  TIP3      H2             29.2856664810        7.3832867438       13.3555218360  SOLV      278             0.0000000000
       962       294  TIP3      OH2            26.5030264810        3.8456167438        7.4789018360  SOLV      279             0.0000000000
       963       294  TIP3      H1             25.5921364810        3.9022967438        7.7675018360  SOLV      279             0.0000000000
       964       294  TIP3      H2             27.0083164810        3.7851667438        8.2896218360  SOLV      279             0.0000000000
       965       295  TIP3      OH2            21.3313664810        5.4742467438        6.3056618360  SOLV      280             0.0000000000
       966       295  TIP3      H1             20.4421664810        5.5737967438        5.9656218360  SOLV      280             0.0000000000
       967       295  TIP3      H2             21.6278564810        4.6325467438        5.9594518360  SOLV      280             0.0000000000
       968       296  TIP3      OH2            24.9845464810        5.4745067438        3.9621218360  SOLV      281             0.0000000000
       969       296  TIP3      H1             25.9160964810        5.6035067438        4.1404318360  SOLV      281             0.0000000000
       970       296  TIP3      H2             24.7695764810        6.1439367438        3.3125918360  SOLV      281             0.0000000000
       971       297  TIP3      OH2            30.9082164810        3.0802467438       10.7430818360  SOLV      282             0.0000000000
       972       297  TIP3      H1             30.2313764810        3.2115567438       11.4070518360  SOLV      282             0.0000000000
       973       297  TIP3      H2             30.4227064810        2.9251967438        9.9328518360  SOLV      282             0.0000000000
       974       298  TIP3      OH2            23.6585664810        6.6687267438        1.5287318360  SOLV      283             0.0000000000
       975       298  TIP3      H1             23.1160764810        6.2891067438        0.8374918360  SOLV      283             0.0000000000
       976       298  TIP3      H2             24.4920564810        6.8631967438        1.1001418360  SOLV      283             0.0000000000
       977       299  TIP3      OH2            34.1957264810       18.7517867438       17.0198418360  SOLV      284             0.0000000000
       978       299  TIP3      H1             34.3955964810       19.1759767438       16.1853718360  SOLV      284             0.0000000000
       979       299  TIP3      H2             34.8510964810       19.0956067438       17.6268818360  SOLV      284             0.0000000000
       980       300  TIP3      OH2            21.7937064810       11.2259167438       16.6278918360  SOLV      285             0.0000000000
       981       300  TIP3      H1             22.5259464810       11.4805067438       17.1893418360  SOLV      285             0.0000000000
       982       300  TIP3      H2             21.0135764810       11.4304567438       17.1434318360  SOLV      285             0.0000000000
       983       301  TIP3      OH2            27.8229964810        6.6329167438        9.3658618360  SOLV      286             0.0000000000
       984       301  TIP3      H1             28.3873364810        6.0865767438        8.8188218360  SOLV      286             0.0000000000
       985       301  TIP3      H2             27.6753364810        6.1111067438       10.1546218360  SOLV      286             0.0000000000
       986       302  TIP3      OH2            22.8249664810        2.7695267438        5.7843418360  SOLV      287             0.0000000000
       987       302  TIP3      H1             22.5079164810        1.8670567438        5.7488818360  SOLV      287             0.0000000000
       988       302  TIP3      H2             23.6063764810        2.7712667438        5.2315018360  SOLV      287             0.0000000000
       989       303  TIP3      OH2            26.4495864810        5.0215267438       11.7799018360  SOLV      288             0.0000000000
       990       303  TIP3      H1             25.6141164810        5.4754767438       11.8901418360  SOLV      288             0.0000000000
       991       303  TIP3      H2             26.9736464810        5.2973767438       12.5318918360  SOLV      288             0.0000000000
       992       304  TIP3      OH2            26.9938464810       11.2342967438        3.4645418360  SOLV      289             0.0000000000
       993       304  TIP3      H1             26.2489464810       10.7268267438        3.1423318360  SOLV      289             0.0000000000
       994       304  TIP3      H2             26.8595664810       11.2830967438        4.4110218360  SOLV      289             0.0000000000
       995       305  TIP3      OH2            34.1437364810       10.3671167438       12.2513018360  SOLV      290             0.0000000000
       996       305  TIP3      H1             34.7856164810       10.8237467438       11.7075218360  SOLV      290             0.0000000000
       997       305  TIP3      H2             33.3134264810       10.4803567438       11.7887118360  SOLV      290             0.0000000000
       998       306  TIP3      OH2            30.8915264810        4.0482867438        1.6638018360  SOLV      291             0.0000000000
       999       306  TIP3      H1             29.9529464810        4.1598467438        1.5126818360  SOLV      291             0.0000000000
      1000       306  TIP3      H2             31.1887364810        4.9049767438        1.9703718360  SOLV      291             0.0000000000
      1001       307  TIP3      OH2            28.5130564810       11.4186267438       14.7014518360  SOLV      292             0.0000000000
      1002       307  TIP3      H1             28.1676664810       11.0368667438       15.5084118360  SOLV      292             0.0000000000
      1003       307  TIP3      H2             28.3130664810       12.3519867438       14.7727418360  SOLV      292             0.0000000000
      1004       308  TIP3      OH2            31.6098764810        5.9155567438        3.3245418360  SOLV      293             0.0000000000
      1005       308  TIP3      H1             32.5017764810        5.7780567438        3.6436618360  SOLV      293             0.0000000000
      1006       308  TIP3      H2             31.6662364810        6.7061667438        2.7878918360  SOLV      293             0.0000000000
      1007       309  TIP3      OH2            22.1186764810       10.5292967438        9.2343318360  SOLV      294             0.0000000000
      1008       309  TIP3      H1             22.8633964810       10.5268667438        8.6329818360  SOLV      294             0.0000000000
      1009       309  TIP3      H2             22.1963364810        9.7056767438        9.7158418360  SOLV      294             0.0000000000
      1010       310  TIP3      OH2            29.1192564810       12.6927267438        2.4900018360  SOLV      295             0.0000000000
      1011       310  TIP3      H1             28.8240964810       13.5195167438        2.8714818360  SOLV      295             0.0000000000
      1012       310  TIP3      H2             28.4162564810       12.0734167438        2.6861418360  SOLV      295             0.0000000000
      1013       311  TIP3      OH2            19.1266464810        8.9899867438       14.5491818360  SOLV      296             0.0000000000
      1014       311  TIP3      H1             19.3495064810        8.5719467438       15.3809318360  SOLV      296             0.0000000000
      1015       311  TIP3      H2             18.5246564810        8.3774867438       14.1264618360  SOLV      296             0.0000000000
      1016       312  TIP3      OH2            26.1431364810        8.5069767438       16.7621518360  SOLV      297             0.0000000000
      1017       312  TIP3      H1             25.8472164810        8.3412767438       15.8670618360  SOLV      297             0.0000000000
      1018       312  TIP3      H2             27.0746564810        8.2870067438       16.7515418360  SOLV      297             0.0000000000
      1019       313  TIP3      OH2            30.7634164810       13.8801767438       14.6519518360  SOLV      298             0.0000000000
      1020       313  TIP3      H1             29.8628464810       14.0634367438       14.3843418360  SOLV      298             0.0000000000
      1021       313  TIP3      H2             30.7975264810       14.1391067438       15.5728318360  SOLV      298             0.0000000000
      1022       314  TIP3      OH2            36.4947464810        6.1249667438        3.0192118360  SOLV      299             0.0000000000
      1023       314  TIP3      H1             35.9403764810        5.7287667438        2.3469618360  SOLV      299             0.0000000000
      1024       314  TIP3      H2             36.5951064810        7.0354867438        2.7415418360  SOLV      299             0.0000000000
      1025       315  TIP3      OH2            36.4579464810       11.9251367438       15.8563618360  SOLV      300             0.0000000000
      1026       315  TIP3      H1             35.6067964810       12.1635167438       15.4890018360  SOLV      300             0.0000000000
      1027       315  TIP3      H2             37.0482864810       11.9084567438       15.1030718360  SOLV      300             0.0000000000
      1028       316  TIP3      OH2            34.7899164810       14.9110067438        3.4844218360  SOLV      301             0.0000000000
      1029       316  TIP3      H1             34.4170264810       14.0853867438        3.7934818360  SOLV      301             0.0000000000
      1030       316  TIP3      H2             35.0672664810       14.7279467438        2.5867618360  SOLV      301             0.0000000000
      1031       317  TIP3      OH2            31.9503064810        9.7189567438       10.5056118360  SOLV      302             0.0000000000
      1032       317  TIP3      H1             31.0219964810        9.4871467438       10.4785418360  SOLV      302             0.0000000000
      1033       317  TIP3      H2             32.4014164810        8.9419367438       10.1754918360  SOLV      302             0.0000000000
      1034       318  TIP3      OH2            24.4936164810       14.0471167438        6.6384818360  SOLV      303             0.0000000000
      1035       318  TIP3      H1             25.0208364810       14.8205567438        6.4383618360  SOLV      303             0.0000000000
      1036       318  TIP3      H2             23.6134664810       14.2720367438        6.3368818360  SOLV      303             0.0000000000
      1037       319  TIP3      OH2            20.2483864810        8.9095267438        1.2257218360  SOLV      304             0.0000000000
      1038       319  TIP3      H1             20.8643764810        9.5362467438        1.6052018360  SOLV      304             0.0000000000
      1039       319  TIP3      H2             19.3866464810        9.2255067438        1.4973718360  SOLV      304             0.0000000000
      1040       320  TIP3      OH2            25.9208464810       11.7101067438        6.2149118360  SOLV      305             0.0000000000
      1041       320  TIP3      H1             25.6798464810       12.6355467438        6.2564418360  SOLV      305             0.0000000000
      1042       320  TIP3      H2             25.1802064810       11.2512367438        6.6113018360  SOLV      305             0.0000000000
      1043       321  TIP3      OH2            26.4355064810       15.8594667438       12.5300218360  SOLV      306             0.0000000000
      1044       321  TIP3      H1             26.7979764810       16.7140267438       12.2964618360  SOLV      306             0.0000000000
      1045       321  TIP3      H2             26.9670264810       15.5676267438       13.2706518360  SOLV      306             0.0000000000
      1046       322  TIP3      OH2            24.6039264810       16.7318667438        5.7601318360  SOLV      307             0.0000000000
      1047       322  TIP3      H1             23.6539764810       16.8376067438        5.8114618360  SOLV      307             0.0000000000
      1048       322  TIP3      H2             24.9557364810       17.5526067438        6.1048818360  SOLV      307             0.0000000000
      1049       323  TIP3      OH2            29.9795864810       11.9585367438       12.2305818360  SOLV      308             0.0000000000
      1050       323  TIP3      H1             29.5537164810       11.7307067438       13.0569818360  SOLV      308             0.0000000000
      1051       323  TIP3      H2             30.5601664810       11.2197167438       12.0481118360  SOLV      308             0.0000000000
      1052       324  TIP3      OH2            32.1824764810       12.8875867438        1.3044818360  SOLV      309             0.0000000000
      1053       324  TIP3      H1             32.5357864810       12.5075667438        2.1088318360  SOLV      309             0.0000000000
      1054       324  TIP3      H2             31.2338264810       12.7940667438        1.3914118360  SOLV      309             0.0000000000
      1055       325  TIP3      OH2            32.6380064810       16.5104867438       14.7000618360  SOLV      310             0.0000000000
      1056       325  TIP3      H1             32.0363264810       15.9547767438       14.2046918360  SOLV      310             0.0000000000
      1057       325  TIP3      H2             32.9193764810       17.1774667438       14.0738018360  SOLV      310             0.0000000000
      1058       326  TIP3      OH2            36.6859164810       17.3668367438        1.5055018360  SOLV      311             0.0000000000
      1059       326  TIP3      H1             37.4297064810       17.9528867438        1.3656618360  SOLV      311             0.0000000000
      1060       326  TIP3      H2             35.9917264810       17.9354167438        1.8387418360  SOLV      311             0.0000000000
      1061       327  TIP3      OH2            20.7605964810        3.7432567438       14.1073218360  SOLV      312             0.0000000000
      1062       327  TIP3      H1             19.8678264810        4.0817967438       14.0397218360  SOLV      312             0.0000000000
      1063       327  TIP3      H2             20.6618764810        2.8878667438       14.5254018360  SOLV      312             0.0000000000
      1064       328  TIP3      OH2            33.0484064810       11.5597867438        3.5312718360  SOLV      313             0.0000000000
      1065       328  TIP3      H1             32.7711664810       10.8317167438        4.0873818360  SOLV      313             0.0000000000
      1066       328  TIP3      H2             33.9757064810       11.6789867438        3.7365318360  SOLV      313             0.0000000000
      1067       329  TIP3      OH2            20.4117964810       15.5476967438       12.5422618360  SOLV      314             0.0000000000
      1068       329  TIP3      H1             20.6288264810       14.6159367438       12.5112318360  SOLV      314             0.0000000000
      1069       329  TIP3      H2             20.6581464810       15.8221967438       13.4255418360  SOLV      314             0.0000000000
      1070       330  TIP3      OH2            25.2103164810       13.5695767438        2.2077418360  SOLV      315             0.0000000000
      1071       330  TIP3      H1             25.3571164810       13.0495567438        2.9978318360  SOLV      315             0.0000000000
      1072       330  TIP3      H2             25.2074864810       14.4763367438        2.5143318360  SOLV      315             0.0000000000
      1073       331  TIP3      OH2            21.6634264810       10.8219067438        2.7182818360  SOLV      316             0.0000000000
      1074       331  TIP3      H1             20.9773564810       11.1741567438        3.2852518360  SOLV      316             0.0000000000
      1075       331  TIP3      H2             22.1862164810       11.5848667438        2.4717118360  SOLV      316             0.0000000000
      1076       332  TIP3      OH2            29.4949364810        3.4842867438       12.9971818360  SOLV      317             0.0000000000
      1077       332  TIP3      H1             30.1937264810        3.5581567438       13.6471518360  SOLV      317             0.0000000000
      1078       332  TIP3      H2             29.1140764810        2.6197867438       13.1514718360  SOLV      317             0.0000000000
      1079       333  TIP3      OH2            30.2794264810        3.1364567438        4.0944118360  SOLV      318             0.0000000000
      1080       333  TIP3      H1             30.4992564810        3.6079967438        3.2909518360  SOLV      318             0.0000000000
      1081       333  TIP3      H2             30.8378264810        3.5307167438        4.7644718360  SOLV      318             0.0000000000
      1082       334  TIP3      OH2            27.9480364810       15.2669367438        2.9571618360  SOLV      319             0.0000000000
      1083       334  TIP3      H1             27.1316464810       15.7639067438        3.0095918360  SOLV      319             0.0000000000
      1084       334  TIP3      H2             28.4776664810       15.7422867438        2.3170418360  SOLV      319             0.0000000000
      1085       335  TIP3      OH2            27.4794164810        4.8643367438        4.9292518360  SOLV      320             0.0000000000
      1086       335  TIP3      H1             28.2916764810        5.3686567438        4.9754218360  SOLV      320             0.0000000000
      1087       335  TIP3      H2             27.2347164810        4.7193067438        5.8432118360  SOLV      320             0.0000000000
      1088       336  TIP3      OH2            28.0150564810        5.8506067438       14.1139118360  SOLV      321             0.0000000000
      1089       336  TIP3      H1             28.1340864810        6.4241467438       14.8709518360  SOLV      321             0.0000000000
      1090       336  TIP3      H2             28.6705164810        5.1625467438       14.2286918360  SOLV      321             0.0000000000
      1091       337  TIP3      OH2            28.3630864810        1.9456367438        5.8673618360  SOLV      322             0.0000000000
      1092       337  TIP3      H1             28.0164364810        2.5626967438        6.5117918360  SOLV      322             0.0000000000
      1093       337  TIP3      H2             29.0217764810        2.4462067438        5.3859118360  SOLV      322             0.0000000000
      1094       338  TIP3      OH2            25.2863464810       16.3106567438        2.9388518360  SOLV      323             0.0000000000
      1095       338  TIP3      H1             25.4472164810       17.1104067438        2.4381118360  SOLV      323             0.0000000000
      1096       338  TIP3      H2             25.0891264810       16.6172567438        3.8239118360  SOLV      323             0.0000000000
      1097       339  TIP3      OH2            24.0207864810        3.0085767438        2.5546118360  SOLV      324             0.0000000000
      1098       339  TIP3      H1             23.9372664810        3.8968867438        2.9012518360  SOLV      324             0.0000000000
      1099       339  TIP3      H2             24.9108164810        2.7432467438        2.7862918360  SOLV      324             0.0000000000
      1100       340  TIP3      OH2            34.2196364810        3.7576367438       14.9488818360  SOLV      325             0.0000000000
      1101       340  TIP3      H1             33.3032164810        4.0198067438       14.8612518360  SOLV      325             0.0000000000
      1102       340  TIP3      H2             34.5551364810        3.7545367438       14.0524118360  SOLV      325             0.0000000000
      1103       341  TIP3      OH2            32.8217364810        7.5077367438        9.0446118360  SOLV      326             0.0000000000
      1104       341  TIP3      H1             32.0241764810        7.0927567438        8.7161118360  SOLV      326             0.0000000000
      1105       341  TIP3      H2             33.2668464810        6.8171067438        9.5356618360  SOLV      326             0.0000000000
      1106       342  TIP3      OH2            22.2793164810       13.4357967438        1.6150618360  SOLV      327             0.0000000000
      1107       342  TIP3      H1             22.8714664810       14.1352767438        1.8913018360  SOLV      327             0.0000000000
      1108       342  TIP3      H2             22.7386164810       13.0027467438        0.8955218360  SOLV      327             0.0000000000
      1109       343  TIP3      OH2            20.5952364810        6.1000967438        0.7310018360  SOLV      328             0.0000000000
      1110       343  TIP3      H1             20.5504964810        7.0394067438        0.9097018360  SOLV      328             0.0000000000
      1111       343  TIP3      H2             19.7075564810        5.8645867438        0.4612118360  SOLV      328             0.0000000000
      1112       344  TIP3      OH2            33.9081964810       16.7639867438       10.6669618360  SOLV      329             0.0000000000
      1113       344  TIP3      H1             33.7526264810       17.4424267438       10.0098918360  SOLV      329             0.0000000000
      1114       344  TIP3      H2             34.8408364810       16.8359167438       10.8700218360  SOLV      329             0.0000000000
      1115       345  TIP3      OH2            21.4034364810        0.8817567438        9.4041018360  SOLV      330             0.0000000000
      1116       345  TIP3      H1             21.1744164810        0.9410067438        8.4766018360  SOLV      330             0.0000000000
      1117       345  TIP3      H2             20.9607764810        0.0903067438        9.7105118360  SOLV      330             0.0000000000
      1118       346  TIP3      OH2            20.3337664810       14.8224667438        5.5646818360  SOLV      331             0.0000000000
      1119       346  TIP3      H1             19.5016264810       15.2947367438        5.5918218360  SOLV      331             0.0000000000
      1120       346  TIP3      H2             20.8795964810       15.3322267438        4.9659918360  SOLV      331             0.0000000000
      1121       347  TIP3      OH2            19.6221364810       17.4348367438       16.8944818360  SOLV      332             0.0000000000
      1122       347  TIP3      H1             20.1623564810       17.2182367438       17.6544018360  SOLV      332             0.0000000000
      1123       347  TIP3      H2             19.1409364810       16.6294367438       16.7047318360  SOLV      332             0.0000000000
      1124       348  TIP3      OH2            24.2194764810       16.3542767438       18.5149018360  SOLV      333             0.0000000000
      1125       348  TIP3      H1             24.9871964810       15.8953567438       18.8558218360  SOLV      333             0.0000000000
      1126       348  TIP3      H2             24.1980964810       16.1282567438       17.5850218360  SOLV      333             0.0000000000
      1127       349  TIP3      OH2            30.7963464810       14.7343867438       17.2440518360  SOLV      334             0.0000000000
      1128       349  TIP3      H1             30.4452964810       13.8776867438       17.4870918360  SOLV      334             0.0000000000
      1129       349  TIP3      H2             31.5226664810       14.8770567438       17.8509518360  SOLV      334             0.0000000000
      1130       350  TIP3      OH2            32.9157264810       15.6793267438        0.1238818360  SOLV      335             0.0000000000
      1131       350  TIP3      H1             33.1987664810       14.8848467438        0.5765718360  SOLV      335             0.0000000000
      1132       350  TIP3      H2             33.6555164810       15.9124267438       -0.4370081640  SOLV      335             0.0000000000
      1133       351  TIP3      OH2            19.5290864810       11.2452467438       17.8489118360  SOLV      336             0.0000000000
      1134       351  TIP3      H1             19.6731364810       10.3433167438       17.5625818360  SOLV      336             0.0000000000
      1135       351  TIP3      H2             18.7568264810       11.5314567438       17.3611418360  SOLV      336             0.0000000000
      1136       352  TIP3      OH2            26.1846964810       11.2150567438       17.2815518360  SOLV      337             0.0000000000
      1137       352  TIP3      H1             25.8560764810       11.4858667438       16.4242918360  SOLV      337             0.0000000000
      1138       352  TIP3      H2             26.3365164810       10.2740367438       17.1940518360  SOLV      337             0.0000000000
      1139       353  TIP3      OH2            29.2227964810       12.6359867438       -0.2828281640  SOLV      338             0.0000000000
      1140       353  TIP3      H1             28.9542064810       12.8161967438        0.6180618360  SOLV      338             0.0000000000
      1141       353  TIP3      H2             29.0163564810       11.7106067438       -0.4142481640  SOLV      338             0.0000000000
      1142       354  TIP3      OH2            31.9192164810       11.1307867438       14.6647818360  SOLV      339             0.0000000000
      1143       354  TIP3      H1             32.6646964810       11.7191567438       14.5451818360  SOLV      339             0.0000000000
      1144       354  TIP3      H2             31.1618964810       11.7127567438       14.7280918360  SOLV      339             0.0000000000
      1145       355  TIP3      OH2            20.3617364810        8.4455767438       17.2688418360  SOLV      340             0.0000000000
      1146       355  TIP3      H1             20.7698564810        7.5882367438       17.1479018360  SOLV      340             0.0000000000
      1147       355  TIP3      H2             20.1014964810        8.4597067438       18.1898718360  SOLV      340             0.0000000000
      1148       356  TIP3      OH2            25.0198364810        9.5614367438        2.2871718360  SOLV      341             0.0000000000
      1149       356  TIP3      H1             24.5600364810        9.0772667438        2.9730218360  SOLV      341             0.0000000000
      1150       356  TIP3      H2             25.2747064810        8.8929767438        1.6512218360  SOLV      341             0.0000000000
      1151       357  TIP3      OH2            24.3087664810        7.4541467438       14.6431318360  SOLV      342             0.0000000000
      1152       357  TIP3      H1             23.6903764810        8.1288067438       14.9236018360  SOLV      342             0.0000000000
      1153       357  TIP3      H2             24.6528864810        7.7755367438       13.8097518360  SOLV      342             0.0000000000
      1154       358  TIP3      OH2            26.0908764810        7.8046167438        0.5494918360  SOLV      343             0.0000000000
      1155       358  TIP3      H1             25.9103764810        7.6497367438       -0.3776781640  SOLV      343             0.0000000000
      1156       358  TIP3      H2             27.0409264810        7.9124867438        0.5942818360  SOLV      343             0.0000000000
      1157       359  TIP3      OH2            29.3285864810        9.9256767438       17.9206118360  SOLV      344             0.0000000000
      1158       359  TIP3      H1             30.2817064810       10.0095867438       17.8932118360  SOLV      344             0.0000000000
      1159       359  TIP3      H2             29.1680464810        9.2138567438       18.5401018360  SOLV      344             0.0000000000
      1160       360  TIP3      OH2            24.6481364810        4.8092267438       15.7254418360  SOLV      345             0.0000000000
      1161       360  TIP3      H1             24.7982264810        4.0803567438       15.1234118360  SOLV      345             0.0000000000
      1162       360  TIP3      H2             24.6503764810        5.5863967438       15.1666618360  SOLV      345             0.0000000000
      1163       361  TIP3      OH2            25.0607064810        3.1788067438       13.2181818360  SOLV      346             0.0000000000
      1164       361  TIP3      H1             25.5964564810        3.6304767438       12.5661118360  SOLV      346             0.0000000000
      1165       361  TIP3      H2             24.2086664810        3.0707867438       12.7955918360  SOLV      346             0.0000000000
      1166       362  TIP3      OH2            26.6425464810        8.6184267438       13.4577018360  SOLV      347             0.0000000000
      1167       362  TIP3      H1             27.3930264810        8.4621767438       12.8844818360  SOLV      347             0.0000000000
      1168       362  TIP3      H2             26.3033764810        9.4700867438       13.1822518360  SOLV      347             0.0000000000
      1169       363  TIP3      OH2            31.0581664810        6.4336067438       18.4862318360  SOLV      348             0.0000000000
      1170       363  TIP3      H1             31.2502964810        5.5025467438       18.3746818360  SOLV      348             0.0000000000
      1171       363  TIP3      H2             31.9157964810        6.8585567438       18.4757718360  SOLV      348             0.0000000000
      1172       364  TIP3      OH2            32.3748864810        9.2221267438       16.5635018360  SOLV      349             0.0000000000
      1173       364  TIP3      H1             32.0933864810        9.9315867438       15.9858818360  SOLV      349             0.0000000000
      1174       364  TIP3      H2             33.3173164810        9.1494267438       16.4126218360  SOLV      349             0.0000000000
      1175       365  TIP3      OH2            23.1267664810        6.0075767438       17.6370018360  SOLV      350             0.0000000000
      1176       365  TIP3      H1             22.3596664810        5.4750567438       17.4267618360  SOLV      350             0.0000000000
      1177       365  TIP3      H2             23.8056664810        5.6976167438       17.0376318360  SOLV      350             0.0000000000
      1178       366  TIP3      OH2            25.8662564810        0.6353767438       13.6495418360  SOLV      351             0.0000000000
      1179       366  TIP3      H1             25.7682164810        1.5816967438       13.5441618360  SOLV      351             0.0000000000
      1180       366  TIP3      H2             25.1238764810        0.2627567438       13.1738918360  SOLV      351             0.0000000000
      1181       367  TIP3      OH2            27.1303064810        4.9569167438       17.2133818360  SOLV      352             0.0000000000
      1182       367  TIP3      H1             26.8948464810        4.7375867438       18.1148718360  SOLV      352             0.0000000000
      1183       367  TIP3      H2             26.3469964810        4.7500367438       16.7036318360  SOLV      352             0.0000000000
      1184       368  TIP3      OH2            29.8459664810        4.0842667438       16.2887318360  SOLV      353             0.0000000000
      1185       368  TIP3      H1             28.8985064810        4.1162367438       16.4210618360  SOLV      353             0.0000000000
      1186       368  TIP3      H2             30.1586364810        3.4589767438       16.9425518360  SOLV      353             0.0000000000
      1187       369  TIP3      OH2            31.4801164810        2.7183767438       18.2939218360  SOLV      354             0.0000000000
      1188       369  TIP3      H1             31.3832964810        1.7661067438       18.2881118360  SOLV      354             0.0000000000
      1189       369  TIP3      H2             31.1584264810        2.9870567438       19.1544718360  SOLV      354             0.0000000000
      1190       370  TIP3      OH2            21.3070464810        3.9279567438       17.3414718360  SOLV      355             0.0000000000
      1191       370  TIP3      H1             21.5187864810        3.2215667438       16.7312218360  SOLV      355             0.0000000000
      1192       370  TIP3      H2             21.1957964810        3.4905567438       18.1855918360  SOLV      355             0.0000000000
      1193       371  TIP3      OH2            26.4418164810        1.6119567438       18.3744518360  SOLV      356             0.0000000000
      1194       371  TIP3      H1             26.3100364810        1.1363367438       17.5543018360  SOLV      356             0.0000000000
      1195       371  TIP3      H2             25.8425564810        2.3563167438       18.3191618360  SOLV      356             0.0000000000
      1196       372  TIP3      OH2            25.9880464810       18.4949867438        1.5508518360  SOLV      357             0.0000000000
      1197       372  TIP3      H1             26.9211164810       18.6528567438        1.6946918360  SOLV      357             0.0000000000
      1198       372  TIP3      H2             25.7239264810       19.1702867438        0.9260018360  SOLV      357             0.0000000000
      1199       373  TIP3      OH2            19.5565364810       13.1313667438        1.0336618360  SOLV      358             0.0000000000
      1200       373  TIP3      H1             20.4704564810       13.2102567438        1.3070518360  SOLV      358             0.0000000000
      1201       373  TIP3      H2             19.5638464810       12.4443267438        0.3672218360  SOLV      358             0.0000000000
      1202       374  TIP3      OH2            18.2055964810       18.5242167438        6.1110518360  SOLV      359             0.0000000000
      1203       374  TIP3      H1             17.5583064810       18.0623867438        5.5781718360  SOLV      359             0.0000000000
      1204       374  TIP3      H2             18.5600564810       17.8525467438        6.6936718360  SOLV      359             0.0000000000
      1205       375  TIP3      OH2            19.0755164810       16.6049167438        7.9156718360  SOLV      360             0.0000000000
      1206       375  TIP3      H1             18.7411964810       15.7246467438        8.0876918360  SOLV      360             0.0000000000
      1207       375  TIP3      H2             19.2977564810       16.9504167438        8.7802318360  SOLV      360             0.0000000000
      1208       376  TIP3      OH2            36.6239964810       17.4145567438       10.8961518360  SOLV      361             0.0000000000
      1209       376  TIP3      H1             36.6026664810       17.5993967438       11.8350918360  SOLV      361             0.0000000000
      1210       376  TIP3      H2             37.3146164810       17.9829567438       10.5552918360  SOLV      361             0.0000000000
      1211       377  TIP3      OH2            36.1872864810       16.9816667438       13.8180618360  SOLV      362             0.0000000000
      1212       377  TIP3      H1             35.7001564810       16.2460767438       13.4468018360  SOLV      362             0.0000000000
      1213       377  TIP3      H2             36.7365564810       16.5880567438       14.4960018360  SOLV      362             0.0000000000
      1214       378  TIP3      OH2            34.6380164810       12.7714767438       18.4560918360  SOLV      363             0.0000000000
      1215       378  TIP3      H1             33.7721264810       12.6664467438       18.8503218360  SOLV      363             0.0000000000
      1216       378  TIP3      H2             35.0146064810       13.5298067438       18.9025618360  SOLV      363             0.0000000000
      1217       379  TIP3      OH2            35.9389864810       11.0278467438        3.9703418360  SOLV      364             0.0000000000
      1218       379  TIP3      H1             36.7891264810       11.4489367438        4.0975018360  SOLV      364             0.0000000000
      1219       379  TIP3      H2             35.9444964810       10.2878567438        4.5774818360  SOLV      364             0.0000000000
      1220       380  TIP3      OH2            36.3335464810        9.0815867438        5.7939118360  SOLV      365             0.0000000000
      1221       380  TIP3      H1             35.6070064810        8.6018467438        6.1916718360  SOLV      365             0.0000000000
      1222       380  TIP3      H2             36.9148764810        9.2870567438        6.5260718360  SOLV      365             0.0000000000
      1223       381  TIP3      OH2            36.0926664810       11.8663367438       10.7416718360  SOLV      366             0.0000000000
      1224       381  TIP3      H1             36.9260864810       11.4883367438       10.4610318360  SOLV      366             0.0000000000
      1225       381  TIP3      H2             36.2046964810       12.8094567438       10.6225818360  SOLV      366             0.0000000000
      1226       382  TIP3      OH2            34.5788964810       14.7440867438       13.0485118360  SOLV      367             0.0000000000
      1227       382  TIP3      H1             33.9314264810       15.0692367438       13.6740318360  SOLV      367             0.0000000000
      1228       382  TIP3      H2             34.0612964810       14.3038567438       12.3743418360  SOLV      367             0.0000000000
      1229       383  TIP3      OH2            36.6018564810        8.9824367438        2.1850418360  SOLV      368             0.0000000000
      1230       383  TIP3      H1             36.0799664810        9.3388467438        1.4661318360  SOLV      368             0.0000000000
      1231       383  TIP3      H2             36.5687764810        9.6572167438        2.8631318360  SOLV      368             0.0000000000
      1232       384  TIP3      OH2            34.9507564810        6.2219967438        0.7357518360  SOLV      369             0.0000000000
      1233       384  TIP3      H1             35.0471964810        6.8886967438        0.0557218360  SOLV      369             0.0000000000
      1234       384  TIP3      H2             34.8107164810        5.4066267438        0.2543018360  SOLV      369             0.0000000000
      1235       385  TIP3      OH2            34.1202264810        7.6022367438        6.3567818360  SOLV      370             0.0000000000
      1236       385  TIP3      H1             33.9701064810        6.6570967438        6.3365618360  SOLV      370             0.0000000000
      1237       385  TIP3      H2             33.7666764810        7.8833767438        7.2006918360  SOLV      370             0.0000000000
      1238       386  TIP3      OH2            19.1554664810        9.6804567438       10.3671618360  SOLV      371             0.0000000000
      1239       386  TIP3      H1             19.3397564810        9.5986267438        9.4314518360  SOLV      371             0.0000000000
      1240       386  TIP3      H2             20.0047564810        9.5561567438       10.7908018360  SOLV      371             0.0000000000
      1241       387  TIP3      OH2            34.9765164810        9.5725667438       15.9956118360  SOLV      372             0.0000000000
      1242       387  TIP3      H1             35.5592464810        8.8377967438       16.1873318360  SOLV      372             0.0000000000
      1243       387  TIP3      H2             35.5404464810       10.3445967438       16.0421918360  SOLV      372             0.0000000000
      1244       388  TIP3      OH2            36.4732264810        7.4751467438       16.6801518360  SOLV      373             0.0000000000
      1245       388  TIP3      H1             35.6098964810        7.0963567438       16.5146218360  SOLV      373             0.0000000000
      1246       388  TIP3      H2             37.0775964810        6.7366267438       16.6057318360  SOLV      373             0.0000000000
      1247       389  TIP3      OH2            34.1981364810        3.6299767438       -0.1466981640  SOLV      374             0.0000000000
      1248       389  TIP3      H1             34.8087164810        3.2586567438        0.4901218360  SOLV      374             0.0000000000
      1249       389  TIP3      H2             33.3612864810        3.2086667438        0.0493018360  SOLV      374             0.0000000000
      1250       390  TIP3      OH2            33.8307064810        5.1848167438        4.8192918360  SOLV      375             0.0000000000
      1251       390  TIP3      H1             34.1104164810        4.2778567438        4.9434618360  SOLV      375             0.0000000000
      1252       390  TIP3      H2             34.5898764810        5.6189667438        4.4302118360  SOLV      375             0.0000000000
      1253       391  TIP3      OH2            34.4425364810        5.7665567438       10.2551818360  SOLV      376             0.0000000000
      1254       391  TIP3      H1             35.3753364810        5.9785467438       10.2207818360  SOLV      376             0.0000000000
      1255       391  TIP3      H2             34.2072864810        5.8677667438       11.1774818360  SOLV      376             0.0000000000
      1256       392  TIP3      OH2            34.4717264810        6.5030867438       13.0311218360  SOLV      377             0.0000000000
      1257       392  TIP3      H1             33.6288564810        6.7711267438       13.3971018360  SOLV      377             0.0000000000
      1258       392  TIP3      H2             34.9141564810        7.3252767438       12.8202318360  SOLV      377             0.0000000000
      1259       393  TIP3      OH2            18.7529464810        4.9509567438       16.5080418360  SOLV      378             0.0000000000
      1260       393  TIP3      H1             19.6724364810        4.8287867438       16.7443518360  SOLV      378             0.0000000000
      1261       393  TIP3      H2             18.3033964810        4.2009267438       16.8973918360  SOLV      378             0.0000000000
      1262       394  TIP3      OH2            36.7548864810        0.4831067438       18.3846218360  SOLV      379             0.0000000000
      1263       394  TIP3      H1             37.1045864810       -0.1705432562       17.7790918360  SOLV      379             0.0000000000
      1264       394  TIP3      H2             36.9018364810        1.3205167438       17.9448818360  SOLV      379             0.0000000000
      1265       395  TIP3      OH2            34.4441864810        2.4477467438        4.8674918360  SOLV      380             0.0000000000
      1266       395  TIP3      H1             34.6266864810        1.9988967438        5.6929918360  SOLV      380             0.0000000000
      1267       395  TIP3      H2             33.8444764810        1.8631867438        4.4039518360  SOLV      380             0.0000000000
      1268       396  TIP3      OH2            19.9741964810        3.2631167438        9.3993318360  SOLV      381             0.0000000000
      1269       396  TIP3      H1             20.4193564810        2.4713667438        9.7013018360  SOLV      381             0.0000000000
      1270       396  TIP3      H2             20.4404964810        3.9796367438        9.8298918360  SOLV      381             0.0000000000
      1271       397  TIP3      OH2            18.2782264810        6.2624167438       10.4683518360  SOLV      382             0.0000000000
      1272       397  TIP3      H1             18.7702064810        6.0414667438        9.6775518360  SOLV      382             0.0000000000
      1273       397  TIP3      H2             18.6403164810        7.1027567438       10.7493018360  SOLV      382             0.0000000000
      1274       398  TIP3      OH2            36.2746064810        2.5925667438       16.7337518360  SOLV      383             0.0000000000
      1275       398  TIP3      H1             35.3571764810        2.8632767438       16.6981018360  SOLV      383             0.0000000000
      1276       398  TIP3      H2             36.3975464810        2.0574067438       15.9497218360  SOLV      383             0.0000000000
      1277       399  TIP3      OH2            36.3108064810        2.5155567438        1.3955218360  SOLV      384             0.0000000000
      1278       399  TIP3      H1             36.7230664810        1.7941267438        0.9203218360  SOLV      384             0.0000000000
      1279       399  TIP3      H2             36.9924564810        3.1850167438        1.4539518360  SOLV      384             0.0000000000
      1280       400  TIP3      OH2            18.5918764810        2.5203267438        4.5225918360  SOLV      385             0.0000000000
      1281       400  TIP3      H1             17.6667164810        2.7289867438        4.3931418360  SOLV      385             0.0000000000
      1282       400  TIP3      H2             19.0458664810        3.0044067438        3.8328218360  SOLV      385             0.0000000000
      1283       401  TIP3      OH2            33.3625964810       17.5044967438        6.4683318360  SOLV      386             0.0000000000
      1284       401  TIP3      H1             34.0148864810       17.1567067438        5.8602418360  SOLV      386             0.0000000000
      1285       401  TIP3      H2             33.8729764810       17.9928167438        7.1143018360  SOLV      386             0.0000000000
      1286       402  TIP3      OH2            18.5554164810        1.2582267438       12.8668418360  SOLV      387             0.0000000000
      1287       402  TIP3      H1             17.8904664810        1.0122567438       13.5099318360  SOLV      387             0.0000000000
      1288       402  TIP3      H2             18.1125464810        1.8802667438       12.2896418360  SOLV      387             0.0000000000
      1289       403  TIP3      OH2            20.7473464810       14.4336367438       17.0114218360  SOLV      388             0.0000000000
      1290       403  TIP3      H1             19.9265964810       14.6082867438       16.5508918360  SOLV      388             0.0000000000
      1291       403  TIP3      H2             20.4951264810       14.3601067438       17.9318618360  SOLV      388             0.0000000000
      1292       404  TIP3      OH2            23.7016364810       15.4077567438       13.2698218360  SOLV      389             0.0000000000
      1293       404  TIP3      H1             23.2767464810       16.2176067438       12.9872818360  SOLV      389             0.0000000000
      1294       404  TIP3      H2             24.6059164810       15.4931667438       12.9678018360  SOLV      389             0.0000000000
      1295       405  TIP3      OH2            28.0127764810       16.8067567438       16.2291918360  SOLV      390             0.0000000000
      1296       405  TIP3      H1             28.1975264810       16.4733667438       17.1072218360  SOLV      390             0.0000000000
      1297       405  TIP3      H2             28.8592264810       17.1166167438       15.9071118360  SOLV      390             0.0000000000
      1298       406  TIP3      OH2            30.3578164810       18.0926467438       15.4733318360  SOLV      391             0.0000000000
      1299       406  TIP3      H1             31.0347064810       17.4598767438       15.2332518360  SOLV      391             0.0000000000
      1300       406  TIP3      H2             30.6796964810       18.4936967438       16.2806618360  SOLV      391             0.0000000000
      1301       407  TIP3      OH2            35.2751964810        0.6821967438       14.5528318360  SOLV      392             0.0000000000
      1302       407  TIP3      H1             34.4625464810        1.0072267438       14.1653018360  SOLV      392             0.0000000000
      1303       407  TIP3      H2             35.5080464810       -0.0779532562       14.0197418360  SOLV      392             0.0000000000
      1304       408  TIP3      OH2            21.1033064810       18.6641467438       13.3173518360  SOLV      393             0.0000000000
      1305       408  TIP3      H1             20.3829464810       19.1042467438       12.8661218360  SOLV      393             0.0000000000
      1306       408  TIP3      H2             20.7377064810       18.4136167438       14.1657518360  SOLV      393             0.0000000000
      1307       409  TIP3      OH2            23.5705664810       18.2645367438       12.3470718360  SOLV      394             0.0000000000
      1308       409  TIP3      H1             22.7057864810       18.3363867438       12.7510818360  SOLV      394             0.0000000000
      1309       409  TIP3      H2             23.5154664810       18.8112667438       11.5633218360  SOLV      394             0.0000000000
      1310       410  TIP3      OH2            28.2811264810       18.1524267438       11.5226718360  SOLV      395             0.0000000000
      1311       410  TIP3      H1             27.8245264810       18.6813967438       10.8685118360  SOLV      395             0.0000000000
      1312       410  TIP3      H2             28.4439264810       18.7555667438       12.2479018360  SOLV      395             0.0000000000
      1313       411  TIP3      OH2            30.6087564810       17.0303867438       12.4677018360  SOLV      396             0.0000000000
      1314       411  TIP3      H1             29.7041264810       17.1954067438       12.2019118360  SOLV      396             0.0000000000
      1315       411  TIP3      H2             31.0376164810       17.8836067438       12.4020418360  SOLV      396             0.0000000000
      1316       412  TIP3      OH2            33.2129464810       18.6002967438       12.7624818360  SOLV      397             0.0000000000
      1317       412  TIP3      H1             33.0311464810       19.5161867438       12.5519718360  SOLV      397             0.0000000000
      1318       412  TIP3      H2             33.3897264810       18.1900067438       11.9159418360  SOLV      397             0.0000000000
      1319       413  TIP3      OH2            20.5181164810       17.2873967438       10.2275318360  SOLV      398             0.0000000000
      1320       413  TIP3      H1             20.4997164810       16.8619067438       11.0847618360  SOLV      398             0.0000000000
      1321       413  TIP3      H2             21.3229064810       16.9688967438        9.8187518360  SOLV      398             0.0000000000
      1322       414  TIP3      OH2            22.6594264810       15.9972667438        8.8825218360  SOLV      399             0.0000000000
      1323       414  TIP3      H1             22.4404964810       15.0810067438        9.0521218360  SOLV      399             0.0000000000
      1324       414  TIP3      H2             23.4836464810       16.1373067438        9.3486618360  SOLV      399             0.0000000000
      1325       415  TIP3      OH2            25.1966764810       16.4671967438        9.7313218360  SOLV      400             0.0000000000
      1326       415  TIP3      H1             25.4092464810       15.5790967438        9.4444118360  SOLV      400             0.0000000000
      1327       415  TIP3      H2             25.2611864810       16.4329667438       10.6857218360  SOLV      400             0.0000000000
      1328       416  TIP3      OH2            28.7050464810        2.1312567438        8.8756518360  SOLV      401             0.0000000000
      1329       416  TIP3      H1             28.0307264810        1.5018167438        9.1312318360  SOLV      401             0.0000000000
      1330       416  TIP3      H2             29.2689664810        1.6471467438        8.2724418360  SOLV      401             0.0000000000
      1331       417  TIP3      OH2            33.8477664810        0.2386567438        8.9883618360  SOLV      402             0.0000000000
      1332       417  TIP3      H1             34.4515264810        0.7861967438        8.4864618360  SOLV      402             0.0000000000
      1333       417  TIP3      H2             32.9779664810        0.5576967438        8.7477718360  SOLV      402             0.0000000000
      1334       418  TIP3      OH2            35.5748064810        1.3775267438        7.3214518360  SOLV      403             0.0000000000
      1335       418  TIP3      H1             36.1865564810        0.8630967438        6.7948118360  SOLV      403             0.0000000000
      1336       418  TIP3      H2             35.9571464810        2.2547367438        7.3448918360  SOLV      403             0.0000000000
      1337       419  TIP3      OH2            21.0317964810        0.7652867438        6.6976418360  SOLV      404             0.0000000000
      1338       419  TIP3      H1             20.2547764810        0.5307767438        6.1902318360  SOLV      404             0.0000000000
      1339       419  TIP3      H2             21.5621564810       -0.0315032562        6.7064418360  SOLV      404             0.0000000000
      1340       420  TIP3      OH2            19.8681364810        0.5630967438        2.5012518360  SOLV      405             0.0000000000
      1341       420  TIP3      H1             20.3072064810        1.1741467438        1.9096018360  SOLV      405             0.0000000000
      1342       420  TIP3      H2             19.2343764810        1.1015067438        2.9752518360  SOLV      405             0.0000000000
      1343       421  TIP3      OH2            25.6110564810        0.6919967438        6.5109518360  SOLV      406             0.0000000000
      1344       421  TIP3      H1             26.4853964810        1.0804267438        6.4813818360  SOLV      406             0.0000000000
      1345       421  TIP3      H2             25.4751364810        0.4767767438        7.4336718360  SOLV      406             0.0000000000
      1346       422  TIP3      OH2            31.1678964810        0.7219767438        8.1601218360  SOLV      407             0.0000000000
      1347       422  TIP3      H1             31.2440564810        0.8171367438        7.2107218360  SOLV      407             0.0000000000
      1348       422  TIP3      H2             30.8928164810       -0.1857332562        8.2890318360  SOLV      407             0.0000000000
      1349       423  TIP3      OH2            32.5211564810        0.7477567438        3.8526218360  SOLV      408             0.0000000000
      1350       423  TIP3      H1             31.8182664810        1.3626767438        3.6427618360  SOLV      408             0.0000000000
      1351       423  TIP3      H2             32.0762964810       -0.0895732562        3.9837118360  SOLV      408             0.0000000000
      1352       424  TIP3      OH2            19.7690864810       16.5113167438        3.3987618360  SOLV      409             0.0000000000
      1353       424  TIP3      H1             19.0840764810       16.4732067438        2.7312718360  SOLV      409             0.0000000000
      1354       424  TIP3      H2             19.7728064810       17.4240767438        3.6869718360  SOLV      409             0.0000000000
      1355       425  TIP3      OH2            21.7290464810        2.4792467438        0.9436618360  SOLV      410             0.0000000000
      1356       425  TIP3      H1             22.2203864810        1.8494867438        0.4162118360  SOLV      410             0.0000000000
      1357       425  TIP3      H2             22.3526764810        2.7751867438        1.6067818360  SOLV      410             0.0000000000
      1358       426  TIP3      OH2            26.7550564810        2.7723967438        3.4007118360  SOLV      411             0.0000000000
      1359       426  TIP3      H1             26.9331864810        2.1257167438        4.0835718360  SOLV      411             0.0000000000
      1360       426  TIP3      H2             26.7016764810        3.6061667438        3.8678218360  SOLV      411             0.0000000000
      1361       427  TIP3      OH2            28.6334364810       17.7208067438        1.7963818360  SOLV      412             0.0000000000
      1362       427  TIP3      H1             29.4994564810       18.0875467438        1.6182018360  SOLV      412             0.0000000000
      1363       427  TIP3      H2             28.3867164810       17.2816067438        0.9824618360  SOLV      412             0.0000000000
      1364       428  TIP3      OH2            35.3423964810       17.2838367438        4.4754918360  SOLV      413             0.0000000000
      1365       428  TIP3      H1             35.1481064810       16.5360467438        3.9104518360  SOLV      413             0.0000000000
      1366       428  TIP3      H2             35.3034064810       18.0418467438        3.8922818360  SOLV      413             0.0000000000
      1367       429  TIP3      OH2            20.9895964810        1.2794767438       16.2152618360  SOLV      414             0.0000000000
      1368       429  TIP3      H1             20.6234164810        0.5137367438       16.6577318360  SOLV      414             0.0000000000
      1369       429  TIP3      H2             21.9024464810        1.3084967438       16.5017718360  SOLV      414             0.0000000000
      1370       430  TIP3      OH2            22.9626764810        0.6299167438       17.7509718360  SOLV      415             0.0000000000
      1371       430  TIP3      H1             23.8610364810        0.3559367438       17.5663118360  SOLV      415             0.0000000000
      1372       430  TIP3      H2             22.5759864810       -0.1124832562       18.2152318360  SOLV      415             0.0000000000
      1373       431  TIP3      OH2            21.5872064810       17.4313967438        0.4239718360  SOLV      416             0.0000000000
      1374       431  TIP3      H1             21.3196664810       17.7176867438        1.2972818360  SOLV      416             0.0000000000
      1375       431  TIP3      H2             22.3584664810       16.8853167438        0.5762218360  SOLV      416             0.0000000000
      1376       432  TIP3      OH2            34.5600164810       16.0350767438       16.6256718360  SOLV      417             0.0000000000
      1377       432  TIP3      H1             33.7782064810       15.8488767438       16.1057318360  SOLV      417             0.0000000000
      1378       432  TIP3      H2             34.4880064810       16.9645067438       16.8429218360  SOLV      417             0.0000000000
      1379       433  TIP3      OH2            48.6100564810        9.9215167438        6.6563918360  SOLV      418             0.0000000000
      1380       433  TIP3      H1             48.6991664810       10.8653367438        6.5241018360  SOLV      418             0.0000000000
      1381       433  TIP3      H2             47.9718164810        9.6461567438        5.9983318360  SOLV      418             0.0000000000
      1382       434  TIP3      OH2            47.5431864810        9.1765867438       10.0752118360  SOLV      419             0.0000000000
      1383       434  TIP3      H1             47.5049364810        8.5302167438       10.7801718360  SOLV      419             0.0000000000
      1384       434  TIP3      H2             47.2208364810        8.7100267438        9.3040818360  SOLV      419             0.0000000000
      1385       435  TIP3      OH2            39.9116864810        8.7907967438       11.6682018360  SOLV      420             0.0000000000
      1386       435  TIP3      H1             39.9528964810        8.1651267438       12.3914418360  SOLV      420             0.0000000000
      1387       435  TIP3      H2             40.6144564810        9.4146567438       11.8502418360  SOLV      420             0.0000000000
      1388       436  TIP3      OH2            40.8349964810       13.2406867438       10.2031118360  SOLV      421             0.0000000000
      1389       436  TIP3      H1             40.4655164810       12.4387367438        9.8335418360  SOLV      421             0.0000000000
      1390       436  TIP3      H2             41.7761064810       13.0721767438       10.2494518360  SOLV      421             0.0000000000
      1391       437  TIP3      OH2            37.4450464810        6.9009467438        5.5959918360  SOLV      422             0.0000000000
      1392       437  TIP3      H1             36.9973864810        7.7468167438        5.5776418360  SOLV      422             0.0000000000
      1393       437  TIP3      H2             36.8841664810        6.3213667438        5.0805018360  SOLV      422             0.0000000000
      1394       438  TIP3      OH2            38.1556564810        9.0629067438        7.7217918360  SOLV      423             0.0000000000
      1395       438  TIP3      H1             38.3690064810        8.2930667438        8.2490918360  SOLV      423             0.0000000000
      1396       438  TIP3      H2             38.8934164810        9.1525767438        7.1185518360  SOLV      423             0.0000000000
      1397       439  TIP3      OH2            48.3607564810       17.2197967438        8.5887618360  SOLV      424             0.0000000000
      1398       439  TIP3      H1             48.9803964810       16.5432667438        8.3156818360  SOLV      424             0.0000000000
      1399       439  TIP3      H2             48.1524964810       17.0018767438        9.4972518360  SOLV      424             0.0000000000
      1400       440  TIP3      OH2            45.9326264810       11.6087267438       10.4813118360  SOLV      425             0.0000000000
      1401       440  TIP3      H1             46.2364164810       10.9228667438        9.8867218360  SOLV      425             0.0000000000
      1402       440  TIP3      H2             46.6540264810       11.7275967438       11.0991118360  SOLV      425             0.0000000000
      1403       441  TIP3      OH2            38.8483064810        6.5011867438        8.8434118360  SOLV      428             0.0000000000
      1404       441  TIP3      H1             39.5019664810        5.9513567438        9.2754218360  SOLV      428             0.0000000000
      1405       441  TIP3      H2             38.8722364810        6.2270867438        7.9266118360  SOLV      428             0.0000000000
      1406       442  TIP3      OH2            41.0383464810        3.0224467438       12.1553518360  SOLV      430             0.0000000000
      1407       442  TIP3      H1             40.8195164810        3.5525067438       11.3889518360  SOLV      430             0.0000000000
      1408       442  TIP3      H2             40.3704364810        3.2489967438       12.8024918360  SOLV      430             0.0000000000
      1409       443  TIP3      OH2            48.4073264810       12.5225567438        5.6992618360  SOLV      431             0.0000000000
      1410       443  TIP3      H1             48.1118364810       12.1997867438        4.8479518360  SOLV      431             0.0000000000
      1411       443  TIP3      H2             48.0831064810       13.4222267438        5.7405218360  SOLV      431             0.0000000000
      1412       444  TIP3      OH2            43.6074864810       10.6980167438       12.4427218360  SOLV      432             0.0000000000
      1413       444  TIP3      H1             42.8673964810       11.2961667438       12.5462418360  SOLV      432             0.0000000000
      1414       444  TIP3      H2             44.3214364810       11.2519767438       12.1270818360  SOLV      432             0.0000000000
      1415       445  TIP3      OH2            40.6320764810        4.9146267438       10.1075718360  SOLV      433             0.0000000000
      1416       445  TIP3      H1             41.2457064810        5.5473867438       10.4808118360  SOLV      433             0.0000000000
      1417       445  TIP3      H2             41.1441464810        4.4421267438        9.4512618360  SOLV      433             0.0000000000
      1418       446  TIP3      OH2            42.0149164810       12.6623167438       13.2298718360  SOLV      434             0.0000000000
      1419       446  TIP3      H1             42.0096764810       13.5416667438       12.8518018360  SOLV      434             0.0000000000
      1420       446  TIP3      H2             41.1613264810       12.5787267438       13.6548618360  SOLV      434             0.0000000000
      1421       447  TIP3      OH2            38.1360064810       12.3331067438        4.0118018360  SOLV      435             0.0000000000
      1422       447  TIP3      H1             37.8640964810       12.5622067438        3.1230918360  SOLV      435             0.0000000000
      1423       447  TIP3      H2             38.1815764810       13.1709867438        4.4723318360  SOLV      435             0.0000000000
      1424       448  TIP3      OH2            42.3824464810       10.0054667438        6.9425118360  SOLV      439             0.0000000000
      1425       448  TIP3      H1             42.0519664810        9.6348067438        6.1242118360  SOLV      439             0.0000000000
      1426       448  TIP3      H2             42.9708564810        9.3348667438        7.2893418360  SOLV      439             0.0000000000
      1427       449  TIP3      OH2            43.7491964810       13.4335267438        9.6237318360  SOLV      440             0.0000000000
      1428       449  TIP3      H1             43.6543264810       12.8548367438        8.8671918360  SOLV      440             0.0000000000
      1429       449  TIP3      H2             44.4785564810       13.0620967438       10.1200118360  SOLV      440             0.0000000000
      1430       450  TIP3      OH2            42.7489964810        8.7740267438       10.5760118360  SOLV      441             0.0000000000
      1431       450  TIP3      H1             43.3142464810        8.8954467438        9.8131318360  SOLV      441             0.0000000000
      1432       450  TIP3      H2             43.0678864810        9.4115267438       11.2148618360  SOLV      441             0.0000000000
      1433       451  TIP3      OH2            49.0582164810       14.2772167438       11.3100618360  SOLV      442             0.0000000000
      1434       451  TIP3      H1             48.8178764810       14.9395267438       11.9579818360  SOLV      442             0.0000000000
      1435       451  TIP3      H2             48.8600364810       13.4427367438       11.7350218360  SOLV      442             0.0000000000
      1436       452  TIP3      OH2            43.6290664810       13.1732967438       15.2932018360  SOLV      443             0.0000000000
      1437       452  TIP3      H1             43.3178164810       13.9556167438       15.7485218360  SOLV      443             0.0000000000
      1438       452  TIP3      H2             42.9790864810       13.0202067438       14.6074018360  SOLV      443             0.0000000000
      1439       453  TIP3      OH2            40.5490564810        9.3714067438       14.5217718360  SOLV      445             0.0000000000
      1440       453  TIP3      H1             40.6193764810       10.0220867438       15.2202718360  SOLV      445             0.0000000000
      1441       453  TIP3      H2             39.6582764810        9.4741567438       14.1868618360  SOLV      445             0.0000000000
      1442       454  TIP3      OH2            47.3345164810       15.2739867438        6.1804418360  SOLV      446             0.0000000000
      1443       454  TIP3      H1             47.8082764810       15.5696167438        6.9578618360  SOLV      446             0.0000000000
      1444       454  TIP3      H2             46.7714464810       16.0121467438        5.9474018360  SOLV      446             0.0000000000
      1445       455  TIP3      OH2            41.8686564810       15.2447967438       16.0565818360  SOLV      447             0.0000000000
      1446       455  TIP3      H1             41.8761864810       15.1087667438       15.1091318360  SOLV      447             0.0000000000
      1447       455  TIP3      H2             40.9526964810       15.1276067438       16.3085818360  SOLV      447             0.0000000000
      1448       456  TIP3      OH2            41.3727164810        9.0748967438        4.5317918360  SOLV      448             0.0000000000
      1449       456  TIP3      H1             41.0808464810        9.8430667438        4.0409218360  SOLV      448             0.0000000000
      1450       456  TIP3      H2             40.6982364810        8.4155167438        4.3689318360  SOLV      448             0.0000000000
      1451       457  TIP3      OH2            37.4657264810       11.4378167438       13.3467718360  SOLV      449             0.0000000000
      1452       457  TIP3      H1             36.9645664810       11.4097567438       12.5317418360  SOLV      449             0.0000000000
      1453       457  TIP3      H2             37.4710964810       10.5321367438       13.6565018360  SOLV      449             0.0000000000
      1454       458  TIP3      OH2            37.2159964810       14.2181967438       10.2307918360  SOLV      450             0.0000000000
      1455       458  TIP3      H1             38.1620564810       14.0738967438       10.2117418360  SOLV      450             0.0000000000
      1456       458  TIP3      H2             37.1036264810       15.0024767438       10.7679118360  SOLV      450             0.0000000000
      1457       459  TIP3      OH2            46.3922464810       14.4580867438       14.7893018360  SOLV      451             0.0000000000
      1458       459  TIP3      H1             46.4797064810       15.2845467438       15.2642118360  SOLV      451             0.0000000000
      1459       459  TIP3      H2             45.5287564810       14.1284667438       15.0382318360  SOLV      451             0.0000000000
      1460       460  TIP3      OH2            46.8068264810       18.2304567438        4.5953618360  SOLV      452             0.0000000000
      1461       460  TIP3      H1             46.7314264810       18.1091767438        3.6488818360  SOLV      452             0.0000000000
      1462       460  TIP3      H2             46.8396964810       19.1797267438        4.7138218360  SOLV      452             0.0000000000
      1463       461  TIP3      OH2            40.4602064810       17.0191567438        6.3762618360  SOLV      453             0.0000000000
      1464       461  TIP3      H1             40.6122464810       16.6711967438        7.2549118360  SOLV      453             0.0000000000
      1465       461  TIP3      H2             39.6092464810       16.6628867438        6.1209818360  SOLV      453             0.0000000000
      1466       462  TIP3      OH2            49.5772364810       17.3101867438        4.3468218360  SOLV      454             0.0000000000
      1467       462  TIP3      H1             48.6422164810       17.4103767438        4.5255218360  SOLV      454             0.0000000000
      1468       462  TIP3      H2             49.8574264810       16.6007867438        4.9251418360  SOLV      454             0.0000000000
      1469       463  TIP3      OH2            39.7147764810       12.7613567438       14.3900518360  SOLV      455             0.0000000000
      1470       463  TIP3      H1             39.9309064810       12.3999167438       15.2496318360  SOLV      455             0.0000000000
      1471       463  TIP3      H2             38.8592464810       12.3867367438       14.1804018360  SOLV      455             0.0000000000
      1472       464  TIP3      OH2            42.3335764810        1.2314067438       10.3854718360  SOLV      456             0.0000000000
      1473       464  TIP3      H1             41.4719464810        1.1442267438        9.9777618360  SOLV      456             0.0000000000
      1474       464  TIP3      H2             42.3111464810        2.0874167438       10.8132318360  SOLV      456             0.0000000000
      1475       465  TIP3      OH2            42.4245864810        6.1968567438       11.4804918360  SOLV      459             0.0000000000
      1476       465  TIP3      H1             41.7827964810        6.1565867438       12.1895018360  SOLV      459             0.0000000000
      1477       465  TIP3      H2             42.4617864810        7.1233267438       11.2427918360  SOLV      459             0.0000000000
      1478       466  TIP3      OH2            47.0592064810        7.0095367438       16.6976418360  SOLV      462             0.0000000000
      1479       466  TIP3      H1             46.4965864810        6.3046967438       17.0184218360  SOLV      462             0.0000000000
      1480       466  TIP3      H2             47.8855464810        6.8887267438       17.1654018360  SOLV      462             0.0000000000
      1481       467  TIP3      OH2            40.1746364810        6.5172067438       13.3476918360  SOLV      464             0.0000000000
      1482       467  TIP3      H1             40.1365764810        6.9173667438       14.2164018360  SOLV      464             0.0000000000
      1483       467  TIP3      H2             39.6837464810        5.7004467438       13.4379818360  SOLV      464             0.0000000000
      1484       468  TIP3      OH2            36.7827164810        3.6333867438        7.1981618360  SOLV      466             0.0000000000
      1485       468  TIP3      H1             37.4134864810        3.6045967438        7.9175518360  SOLV      466             0.0000000000
      1486       468  TIP3      H2             37.2321464810        3.2082567438        6.4677518360  SOLV      466             0.0000000000
      1487       469  TIP3      OH2            38.0569264810        4.3795867438        2.6222018360  SOLV      467             0.0000000000
      1488       469  TIP3      H1             38.5310964810        4.9705767438        2.0372918360  SOLV      467             0.0000000000
      1489       469  TIP3      H2             37.3395664810        4.9098767438        2.9692118360  SOLV      467             0.0000000000
      1490       470  TIP3      OH2            48.2257364810        7.9180667438       12.6947818360  SOLV      468             0.0000000000
      1491       470  TIP3      H1             48.5492164810        7.2870367438       12.0518318360  SOLV      468             0.0000000000
      1492       470  TIP3      H2             47.7856664810        7.3832867438       13.3555218360  SOLV      468             0.0000000000
      1493       471  TIP3      OH2            39.8313664810        5.4742467438        6.3056618360  SOLV      470             0.0000000000
      1494       471  TIP3      H1             38.9421664810        5.5737967438        5.9656218360  SOLV      470             0.0000000000
      1495       471  TIP3      H2             40.1278564810        4.6325467438        5.9594518360  SOLV      470             0.0000000000
      1496       472  TIP3      OH2            40.2937064810       11.2259167438       16.6278918360  SOLV      474             0.0000000000
      1497       472  TIP3      H1             41.0259464810       11.4805067438       17.1893418360  SOLV      474             0.0000000000
      1498       472  TIP3      H2             39.5135764810       11.4304567438       17.1434318360  SOLV      474             0.0000000000
      1499       473  TIP3      OH2            45.4938464810       11.2342967438        3.4645418360  SOLV      478             0.0000000000
      1500       473  TIP3      H1             44.7489464810       10.7268267438        3.1423318360  SOLV      478             0.0000000000
      1501       473  TIP3      H2             45.3595664810       11.2830967438        4.4110218360  SOLV      478             0.0000000000
      1502       474  TIP3      OH2            47.0130564810       11.4186267438       14.7014518360  SOLV      480             0.0000000000
      1503       474  TIP3      H1             46.6676664810       11.0368667438       15.5084118360  SOLV      480             0.0000000000
      1504       474  TIP3      H2             46.8130664810       12.3519867438       14.7727418360  SOLV      480             0.0000000000
      1505       475  TIP3      OH2            40.6186764810       10.5292967438        9.2343318360  SOLV      481             0.0000000000
      1506       475  TIP3      H1             41.3633964810       10.5268667438        8.6329818360  SOLV      481             0.0000000000
      1507       475  TIP3      H2             40.6963364810        9.7056767438        9.7158418360  SOLV      481             0.0000000000
      1508       476  TIP3      OH2            47.6192564810       12.6927267438        2.4900018360  SOLV      482             0.0000000000
      1509       476  TIP3      H1             47.3240964810       13.5195167438        2.8714818360  SOLV      482             0.0000000000
      1510       476  TIP3      H2             46.9162564810       12.0734167438        2.6861418360  SOLV      482             0.0000000000
      1511       477  TIP3      OH2            37.6266464810        8.9899867438       14.5491818360  SOLV      483             0.0000000000
      1512       477  TIP3      H1             37.8495064810        8.5719467438       15.3809318360  SOLV      483             0.0000000000
      1513       477  TIP3      H2             37.0246564810        8.3774867438       14.1264618360  SOLV      483             0.0000000000
      1514       478  TIP3      OH2            44.6431364810        8.5069767438       16.7621518360  SOLV      484             0.0000000000
      1515       478  TIP3      H1             44.3472164810        8.3412767438       15.8670618360  SOLV      484             0.0000000000
      1516       478  TIP3      H2             45.5746564810        8.2870067438       16.7515418360  SOLV      484             0.0000000000
      1517       479  TIP3      OH2            49.2634164810       13.8801767438       14.6519518360  SOLV      485             0.0000000000
      1518       479  TIP3      H1             48.3628464810       14.0634367438       14.3843418360  SOLV      485             0.0000000000
      1519       479  TIP3      H2             49.2975264810       14.1391067438       15.5728318360  SOLV      485             0.0000000000
      1520       480  TIP3      OH2            42.9936164810       14.0471167438        6.6384818360  SOLV      486             0.0000000000
      1521       480  TIP3      H1             43.5208364810       14.8205567438        6.4383618360  SOLV      486             0.0000000000
      1522       480  TIP3      H2             42.1134664810       14.2720367438        6.3368818360  SOLV      486             0.0000000000
      1523       481  TIP3      OH2            38.7483864810        8.9095267438        1.2257218360  SOLV      487             0.0000000000
      1524       481  TIP3      H1             39.3643764810        9.5362467438        1.6052018360  SOLV      487             0.0000000000
      1525       481  TIP3      H2             37.8866464810        9.2255067438        1.4973718360  SOLV      487             0.0000000000
      1526       482  TIP3      OH2            44.4208464810       11.7101067438        6.2149118360  SOLV      488             0.0000000000
      1527       482  TIP3      H1             44.1798464810       12.6355467438        6.2564418360  SOLV      488             0.0000000000
      1528       482  TIP3      H2             43.6802064810       11.2512367438        6.6113018360  SOLV      488             0.0000000000
      1529       483  TIP3      OH2            44.9355064810       15.8594667438       12.5300218360  SOLV      489             0.0000000000
      1530       483  TIP3      H1             45.2979764810       16.7140267438       12.2964618360  SOLV      489             0.0000000000
      1531       483  TIP3      H2             45.4670264810       15.5676267438       13.2706518360  SOLV      489             0.0000000000
      1532       484  TIP3      OH2            43.1039264810       16.7318667438        5.7601318360  SOLV      490             0.0000000000
      1533       484  TIP3      H1             42.1539764810       16.8376067438        5.8114618360  SOLV      490             0.0000000000
      1534       484  TIP3      H2             43.4557364810       17.5526067438        6.1048818360  SOLV      490             0.0000000000
      1535       485  TIP3      OH2            48.4795864810       11.9585367438       12.2305818360  SOLV      491             0.0000000000
      1536       485  TIP3      H1             48.0537164810       11.7307067438       13.0569818360  SOLV      491             0.0000000000
      1537       485  TIP3      H2             49.0601664810       11.2197167438       12.0481118360  SOLV      491             0.0000000000
      1538       486  TIP3      OH2            39.2605964810        3.7432567438       14.1073218360  SOLV      492             0.0000000000
      1539       486  TIP3      H1             38.3678264810        4.0817967438       14.0397218360  SOLV      492             0.0000000000
      1540       486  TIP3      H2             39.1618764810        2.8878667438       14.5254018360  SOLV      492             0.0000000000
      1541       487  TIP3      OH2            38.9117964810       15.5476967438       12.5422618360  SOLV      493             0.0000000000
      1542       487  TIP3      H1             39.1288264810       14.6159367438       12.5112318360  SOLV      493             0.0000000000
      1543       487  TIP3      H2             39.1581464810       15.8221967438       13.4255418360  SOLV      493             0.0000000000
      1544       488  TIP3      OH2            43.7103164810       13.5695767438        2.2077418360  SOLV      494             0.0000000000
      1545       488  TIP3      H1             43.8571164810       13.0495567438        2.9978318360  SOLV      494             0.0000000000
      1546       488  TIP3      H2             43.7074864810       14.4763367438        2.5143318360  SOLV      494             0.0000000000
      1547       489  TIP3      OH2            40.1634264810       10.8219067438        2.7182818360  SOLV      495             0.0000000000
      1548       489  TIP3      H1             39.4773564810       11.1741567438        3.2852518360  SOLV      495             0.0000000000
      1549       489  TIP3      H2             40.6862164810       11.5848667438        2.4717118360  SOLV      495             0.0000000000
      1550       490  TIP3      OH2            46.4480364810       15.2669367438        2.9571618360  SOLV      498             0.0000000000
      1551       490  TIP3      H1             45.6316464810       15.7639067438        3.0095918360  SOLV      498             0.0000000000
      1552       490  TIP3      H2             46.9776664810       15.7422867438        2.3170418360  SOLV      498             0.0000000000
      1553       491  TIP3      OH2            46.5150564810        5.8506067438       14.1139118360  SOLV      500             0.0000000000
      1554       491  TIP3      H1             46.6340864810        6.4241467438       14.8709518360  SOLV      500             0.0000000000
      1555       491  TIP3      H2             47.1705164810        5.1625467438       14.2286918360  SOLV      500             0.0000000000
      1556       492  TIP3      OH2            43.7863464810       16.3106567438        2.9388518360  SOLV      502             0.0000000000
      1557       492  TIP3      H1             43.9472164810       17.1104067438        2.4381118360  SOLV      502             0.0000000000
      1558       492  TIP3      H2             43.5891264810       16.6172567438        3.8239118360  SOLV      502             0.0000000000
      1559       493  TIP3      OH2            40.7793164810       13.4357967438        1.6150618360  SOLV      504             0.0000000000
      1560       493  TIP3      H1             41.3714664810       14.1352767438        1.8913018360  SOLV      504             0.0000000000
      1561       493  TIP3      H2             41.2386164810       13.0027467438        0.8955218360  SOLV      504             0.0000000000
      1562       494  TIP3      OH2            39.0952364810        6.1000967438        0.7310018360  SOLV      505             0.0000000000
      1563       494  TIP3      H1             39.0504964810        7.0394067438        0.9097018360  SOLV      505             0.0000000000
      1564       494  TIP3      H2             38.2075564810        5.8645867438        0.4612118360  SOLV      505             0.0000000000
      1565       495  TIP3      OH2            39.9034364810        0.8817567438        9.4041018360  SOLV      506             0.0000000000
      1566       495  TIP3      H1             39.6744164810        0.9410067438        8.4766018360  SOLV      506             0.0000000000
      1567       495  TIP3      H2             39.4607764810        0.0903067438        9.7105118360  SOLV      506             0.0000000000
      1568       496  TIP3      OH2            38.8337664810       14.8224667438        5.5646818360  SOLV      507             0.0000000000
      1569       496  TIP3      H1             38.0016264810       15.2947367438        5.5918218360  SOLV      507             0.0000000000
      1570       496  TIP3      H2             39.3795964810       15.3322267438        4.9659918360  SOLV      507             0.0000000000
      1571       497  TIP3      OH2            38.1221364810       17.4348367438       16.8944818360  SOLV      508             0.0000000000
      1572       497  TIP3      H1             38.6623564810       17.2182367438       17.6544018360  SOLV      508             0.0000000000
      1573       497  TIP3      H2             37.6409364810       16.6294367438       16.7047318360  SOLV      508             0.0000000000
      1574       498  TIP3      OH2            42.7194764810       16.3542767438       18.5149018360  SOLV      509             0.0000000000
      1575       498  TIP3      H1             43.4871964810       15.8953567438       18.8558218360  SOLV      509             0.0000000000
      1576       498  TIP3      H2             42.6980964810       16.1282567438       17.5850218360  SOLV      509             0.0000000000
      1577       499  TIP3      OH2            49.2963464810       14.7343867438       17.2440518360  SOLV      510             0.0000000000
      1578       499  TIP3      H1             48.9452964810       13.8776867438       17.4870918360  SOLV      510             0.0000000000
      1579       499  TIP3      H2             50.0226664810       14.8770567438       17.8509518360  SOLV      510             0.0000000000
      1580       500  TIP3      OH2            38.0290864810       11.2452467438       17.8489118360  SOLV      511             0.0000000000
      1581       500  TIP3      H1             38.1731364810       10.3433167438       17.5625818360  SOLV      511             0.0000000000
      1582       500  TIP3      H2             37.2568264810       11.5314567438       17.3611418360  SOLV      511             0.0000000000
      1583       501  TIP3      OH2            44.6846964810       11.2150567438       17.2815518360  SOLV      512             0.0000000000
      1584       501  TIP3      H1             44.3560764810       11.4858667438       16.4242918360  SOLV      512             0.0000000000
      1585       501  TIP3      H2             44.8365164810       10.2740367438       17.1940518360  SOLV      512             0.0000000000
      1586       502  TIP3      OH2            47.7227964810       12.6359867438       -0.2828281640  SOLV      513             0.0000000000
      1587       502  TIP3      H1             47.4542064810       12.8161967438        0.6180618360  SOLV      513             0.0000000000
      1588       502  TIP3      H2             47.5163564810       11.7106067438       -0.4142481640  SOLV      513             0.0000000000
      1589       503  TIP3      OH2            38.8617364810        8.4455767438       17.2688418360  SOLV      514             0.0000000000
      1590       503  TIP3      H1             39.2698564810        7.5882367438       17.1479018360  SOLV      514             0.0000000000
      1591       503  TIP3      H2             38.6014964810        8.4597067438       18.1898718360  SOLV      514             0.0000000000
      1592       504  TIP3      OH2            42.8087664810        7.4541467438       14.6431318360  SOLV      516             0.0000000000
      1593       504  TIP3      H1             42.1903764810        8.1288067438       14.9236018360  SOLV      516             0.0000000000
      1594       504  TIP3      H2             43.1528864810        7.7755367438       13.8097518360  SOLV      516             0.0000000000
      1595       505  TIP3      OH2            47.8285864810        9.9256767438       17.9206118360  SOLV      518             0.0000000000
      1596       505  TIP3      H1             48.7817064810       10.0095867438       17.8932118360  SOLV      518             0.0000000000
      1597       505  TIP3      H2             47.6680464810        9.2138567438       18.5401018360  SOLV      518             0.0000000000
      1598       506  TIP3      OH2            43.1481364810        4.8092267438       15.7254418360  SOLV      519             0.0000000000
      1599       506  TIP3      H1             43.2982264810        4.0803567438       15.1234118360  SOLV      519             0.0000000000
      1600       506  TIP3      H2             43.1503764810        5.5863967438       15.1666618360  SOLV      519             0.0000000000
      1601       507  TIP3      OH2            43.5607064810        3.1788067438       13.2181818360  SOLV      520             0.0000000000
      1602       507  TIP3      H1             44.0964564810        3.6304767438       12.5661118360  SOLV      520             0.0000000000
      1603       507  TIP3      H2             42.7086664810        3.0707867438       12.7955918360  SOLV      520             0.0000000000
      1604       508  TIP3      OH2            45.1425464810        8.6184267438       13.4577018360  SOLV      521             0.0000000000
      1605       508  TIP3      H1             45.8930264810        8.4621767438       12.8844818360  SOLV      521             0.0000000000
      1606       508  TIP3      H2             44.8033764810        9.4700867438       13.1822518360  SOLV      521             0.0000000000
      1607       509  TIP3      OH2            49.5581664810        6.4336067438       18.4862318360  SOLV      522             0.0000000000
      1608       509  TIP3      H1             49.7502964810        5.5025467438       18.3746818360  SOLV      522             0.0000000000
      1609       509  TIP3      H2             50.4157964810        6.8585567438       18.4757718360  SOLV      522             0.0000000000
      1610       510  TIP3      OH2            41.6267664810        6.0075767438       17.6370018360  SOLV      523             0.0000000000
      1611       510  TIP3      H1             40.8596664810        5.4750567438       17.4267618360  SOLV      523             0.0000000000
      1612       510  TIP3      H2             42.3056664810        5.6976167438       17.0376318360  SOLV      523             0.0000000000
      1613       511  TIP3      OH2            44.3662564810        0.6353767438       13.6495418360  SOLV      524             0.0000000000
      1614       511  TIP3      H1             44.2682164810        1.5816967438       13.5441618360  SOLV      524             0.0000000000
      1615       511  TIP3      H2             43.6238764810        0.2627567438       13.1738918360  SOLV      524             0.0000000000
      1616       512  TIP3      OH2            45.6303064810        4.9569167438       17.2133818360  SOLV      525             0.0000000000
      1617       512  TIP3      H1             45.3948464810        4.7375867438       18.1148718360  SOLV      525             0.0000000000
      1618       512  TIP3      H2             44.8469964810        4.7500367438       16.7036318360  SOLV      525             0.0000000000
      1619       513  TIP3      OH2            48.3459664810        4.0842667438       16.2887318360  SOLV      526             0.0000000000
      1620       513  TIP3      H1             47.3985064810        4.1162367438       16.4210618360  SOLV      526             0.0000000000
      1621       513  TIP3      H2             48.6586364810        3.4589767438       16.9425518360  SOLV      526             0.0000000000
      1622       514  TIP3      OH2            49.9801164810        2.7183767438       18.2939218360  SOLV      527             0.0000000000
      1623       514  TIP3      H1             49.8832964810        1.7661067438       18.2881118360  SOLV      527             0.0000000000
      1624       514  TIP3      H2             49.6584264810        2.9870567438       19.1544718360  SOLV      527             0.0000000000
      1625       515  TIP3      OH2            39.8070464810        3.9279567438       17.3414718360  SOLV      528             0.0000000000
      1626       515  TIP3      H1             40.0187864810        3.2215667438       16.7312218360  SOLV      528             0.0000000000
      1627       515  TIP3      H2             39.6957964810        3.4905567438       18.1855918360  SOLV      528             0.0000000000
      1628       516  TIP3      OH2            44.9418164810        1.6119567438       18.3744518360  SOLV      529             0.0000000000
      1629       516  TIP3      H1             44.8100364810        1.1363367438       17.5543018360  SOLV      529             0.0000000000
      1630       516  TIP3      H2             44.3425564810        2.3563167438       18.3191618360  SOLV      529             0.0000000000
      1631       517  TIP3      OH2            44.4880464810       18.4949867438        1.5508518360  SOLV      530             0.0000000000
      1632       517  TIP3      H1             45.4211164810       18.6528567438        1.6946918360  SOLV      530             0.0000000000
      1633       517  TIP3      H2             44.2239264810       19.1702867438        0.9260018360  SOLV      530             0.0000000000
      1634       518  TIP3      OH2            38.0565364810       13.1313667438        1.0336618360  SOLV      531             0.0000000000
      1635       518  TIP3      H1             38.9704564810       13.2102567438        1.3070518360  SOLV      531             0.0000000000
      1636       518  TIP3      H2             38.0638464810       12.4443267438        0.3672218360  SOLV      531             0.0000000000
      1637       519  TIP3      OH2            36.7055964810       18.5242167438        6.1110518360  SOLV      532             0.0000000000
      1638       519  TIP3      H1             36.0583064810       18.0623867438        5.5781718360  SOLV      532             0.0000000000
      1639       519  TIP3      H2             37.0600564810       17.8525467438        6.6936718360  SOLV      532             0.0000000000
      1640       520  TIP3      OH2            37.5755164810       16.6049167438        7.9156718360  SOLV      533             0.0000000000
      1641       520  TIP3      H1             37.2411964810       15.7246467438        8.0876918360  SOLV      533             0.0000000000
      1642       520  TIP3      H2             37.7977564810       16.9504167438        8.7802318360  SOLV      533             0.0000000000
      1643       521  TIP3      OH2            37.6554664810        9.6804567438       10.3671618360  SOLV      534             0.0000000000
      1644       521  TIP3      H1             37.8397564810        9.5986267438        9.4314518360  SOLV      534             0.0000000000
      1645       521  TIP3      H2             38.5047564810        9.5561567438       10.7908018360  SOLV      534             0.0000000000
      1646       522  TIP3      OH2            37.2529464810        4.9509567438       16.5080418360  SOLV      535             0.0000000000
      1647       522  TIP3      H1             38.1724364810        4.8287867438       16.7443518360  SOLV      535             0.0000000000
      1648       522  TIP3      H2             36.8033964810        4.2009267438       16.8973918360  SOLV      535             0.0000000000
      1649       523  TIP3      OH2            38.4741964810        3.2631167438        9.3993318360  SOLV      536             0.0000000000
      1650       523  TIP3      H1             38.9193564810        2.4713667438        9.7013018360  SOLV      536             0.0000000000
      1651       523  TIP3      H2             38.9404964810        3.9796367438        9.8298918360  SOLV      536             0.0000000000
      1652       524  TIP3      OH2            36.7782264810        6.2624167438       10.4683518360  SOLV      537             0.0000000000
      1653       524  TIP3      H1             37.2702064810        6.0414667438        9.6775518360  SOLV      537             0.0000000000
      1654       524  TIP3      H2             37.1403164810        7.1027567438       10.7493018360  SOLV      537             0.0000000000
      1655       525  TIP3      OH2            37.0918764810        2.5203267438        4.5225918360  SOLV      538             0.0000000000
      1656       525  TIP3      H1             36.1667164810        2.7289867438        4.3931418360  SOLV      538             0.0000000000
      1657       525  TIP3      H2             37.5458664810        3.0044067438        3.8328218360  SOLV      538             0.0000000000
      1658       526  TIP3      OH2            37.0554164810        1.2582267438       12.8668418360  SOLV      539             0.0000000000
      1659       526  TIP3      H1             36.3904664810        1.0122567438       13.5099318360  SOLV      539             0.0000000000
      1660       526  TIP3      H2             36.6125464810        1.8802667438       12.2896418360  SOLV      539             0.0000000000
      1661       527  TIP3      OH2            39.2473464810       14.4336367438       17.0114218360  SOLV      540             0.0000000000
      1662       527  TIP3      H1             38.4265964810       14.6082867438       16.5508918360  SOLV      540             0.0000000000
      1663       527  TIP3      H2             38.9951264810       14.3601067438       17.9318618360  SOLV      540             0.0000000000
      1664       528  TIP3      OH2            42.2016364810       15.4077567438       13.2698218360  SOLV      541             0.0000000000
      1665       528  TIP3      H1             41.7767464810       16.2176067438       12.9872818360  SOLV      541             0.0000000000
      1666       528  TIP3      H2             43.1059164810       15.4931667438       12.9678018360  SOLV      541             0.0000000000
      1667       529  TIP3      OH2            46.5127764810       16.8067567438       16.2291918360  SOLV      542             0.0000000000
      1668       529  TIP3      H1             46.6975264810       16.4733667438       17.1072218360  SOLV      542             0.0000000000
      1669       529  TIP3      H2             47.3592264810       17.1166167438       15.9071118360  SOLV      542             0.0000000000
      1670       530  TIP3      OH2            48.8578164810       18.0926467438       15.4733318360  SOLV      543             0.0000000000
      1671       530  TIP3      H1             49.5347064810       17.4598767438       15.2332518360  SOLV      543             0.0000000000
      1672       530  TIP3      H2             49.1796964810       18.4936967438       16.2806618360  SOLV      543             0.0000000000
      1673       531  TIP3      OH2            39.6033064810       18.6641467438       13.3173518360  SOLV      544             0.0000000000
      1674       531  TIP3      H1             38.8829464810       19.1042467438       12.8661218360  SOLV      544             0.0000000000
      1675       531  TIP3      H2             39.2377064810       18.4136167438       14.1657518360  SOLV      544             0.0000000000
      1676       532  TIP3      OH2            42.0705664810       18.2645367438       12.3470718360  SOLV      545             0.0000000000
      1677       532  TIP3      H1             41.2057864810       18.3363867438       12.7510818360  SOLV      545             0.0000000000
      1678       532  TIP3      H2             42.0154664810       18.8112667438       11.5633218360  SOLV      545             0.0000000000
      1679       533  TIP3      OH2            46.7811264810       18.1524267438       11.5226718360  SOLV      546             0.0000000000
      1680       533  TIP3      H1             46.3245264810       18.6813967438       10.8685118360  SOLV      546             0.0000000000
      1681       533  TIP3      H2             46.9439264810       18.7555667438       12.2479018360  SOLV      546             0.0000000000
      1682       534  TIP3      OH2            49.1087564810       17.0303867438       12.4677018360  SOLV      547             0.0000000000
      1683       534  TIP3      H1             48.2041264810       17.1954067438       12.2019118360  SOLV      547             0.0000000000
      1684       534  TIP3      H2             49.5376164810       17.8836067438       12.4020418360  SOLV      547             0.0000000000
      1685       535  TIP3      OH2            39.0181164810       17.2873967438       10.2275318360  SOLV      548             0.0000000000
      1686       535  TIP3      H1             38.9997164810       16.8619067438       11.0847618360  SOLV      548             0.0000000000
      1687       535  TIP3      H2             39.8229064810       16.9688967438        9.8187518360  SOLV      548             0.0000000000
      1688       536  TIP3      OH2            41.1594264810       15.9972667438        8.8825218360  SOLV      549             0.0000000000
      1689       536  TIP3      H1             40.9404964810       15.0810067438        9.0521218360  SOLV      549             0.0000000000
      1690       536  TIP3      H2             41.9836464810       16.1373067438        9.3486618360  SOLV      549             0.0000000000
      1691       537  TIP3      OH2            43.6966764810       16.4671967438        9.7313218360  SOLV      550             0.0000000000
      1692       537  TIP3      H1             43.9092464810       15.5790967438        9.4444118360  SOLV      550             0.0000000000
      1693       537  TIP3      H2             43.7611864810       16.4329667438       10.6857218360  SOLV      550             0.0000000000
      1694       538  TIP3      OH2            39.5317964810        0.7652867438        6.6976418360  SOLV      552             0.0000000000
      1695       538  TIP3      H1             38.7547764810        0.5307767438        6.1902318360  SOLV      552             0.0000000000
      1696       538  TIP3      H2             40.0621564810       -0.0315032562        6.7064418360  SOLV      552             0.0000000000
      1697       539  TIP3      OH2            38.3681364810        0.5630967438        2.5012518360  SOLV      553             0.0000000000
      1698       539  TIP3      H1             38.8072064810        1.1741467438        1.9096018360  SOLV      553             0.0000000000
      1699       539  TIP3      H2             37.7343764810        1.1015067438        2.9752518360  SOLV      553             0.0000000000
      1700       540  TIP3      OH2            38.2690864810       16.5113167438        3.3987618360  SOLV      556             0.0000000000
      1701       540  TIP3      H1             37.5840764810       16.4732067438        2.7312718360  SOLV      556             0.0000000000
      1702       540  TIP3      H2             38.2728064810       17.4240767438        3.6869718360  SOLV      556             0.0000000000
      1703       541  TIP3      OH2            40.2290464810        2.4792467438        0.9436618360  SOLV      557             0.0000000000
      1704       541  TIP3      H1             40.7203864810        1.8494867438        0.4162118360  SOLV      557             0.0000000000
      1705       541  TIP3      H2             40.8526764810        2.7751867438        1.6067818360  SOLV      557             0.0000000000
      1706       542  TIP3      OH2            47.1334364810       17.7208067438        1.7963818360  SOLV      559             0.0000000000
      1707       542  TIP3      H1             47.9994564810       18.0875467438        1.6182018360  SOLV      559             0.0000000000
      1708       542  TIP3      H2             46.8867164810       17.2816067438        0.9824618360  SOLV      559             0.0000000000
      1709       543  TIP3      OH2            39.4895964810        1.2794767438       16.2152618360  SOLV      560             0.0000000000
      1710       543  TIP3      H1             39.1234164810        0.5137367438       16.6577318360  SOLV      560             0.0000000000
      1711       543  TIP3      H2             40.4024464810        1.3084967438       16.5017718360  SOLV      560             0.0000000000
      1712       544  TIP3      OH2            41.4626764810        0.6299167438       17.7509718360  SOLV      561             0.0000000000
      1713       544  TIP3      H1             42.3610364810        0.3559367438       17.5663118360  SOLV      561             0.0000000000
      1714       544  TIP3      H2             41.0759864810       -0.1124832562       18.2152318360  SOLV      561             0.0000000000
      1715       545  TIP3      OH2            40.0872064810       17.4313967438        0.4239718360  SOLV      562             0.0000000000
      1716       545  TIP3      H1             39.8196664810       17.7176867438        1.2972818360  SOLV      562             0.0000000000
      1717       545  TIP3      H2             40.8584664810       16.8853167438        0.5762218360  SOLV      562             0.0000000000
      1718       546  TIP3      OH2            11.6100564810       28.4215167438        6.6563918360  SOLV      563             0.0000000000
      1719       546  TIP3      H1             11.6991664810       29.3653367438        6.5241018360  SOLV      563             0.0000000000
      1720       546  TIP3      H2             10.9718164810       28.1461567438        5.9983318360  SOLV      563             0.0000000000
      1721       547  TIP3      OH2            10.5431864810       27.6765867438       10.0752118360  SOLV      564             0.0000000000
      1722       547  TIP3      H1             10.5049364810       27.0302167438       10.7801718360  SOLV      564             0.0000000000
      1723       547  TIP3      H2             10.2208364810       27.2100267438        9.3040818360  SOLV      564             0.0000000000
      1724       548  TIP3      OH2             2.9116864810       27.2907967438       11.6682018360  SOLV      565             0.0000000000
      1725       548  TIP3      H1              2.9528964810       26.6651267438       12.3914418360  SOLV      565             0.0000000000
      1726       548  TIP3      H2              3.6144564810       27.9146567438       11.8502418360  SOLV      565             0.0000000000
      1727       549  TIP3      OH2            14.2492064810       30.6156267438        8.3767218360  SOLV      566             0.0000000000
      1728       549  TIP3      H1             13.8084764810       29.8952267438        8.8272818360  SOLV      566             0.0000000000
      1729       549  TIP3      H2             14.2361764810       31.3363467438        9.0064918360  SOLV      566             0.0000000000
      1730       550  TIP3      OH2             3.8349964810       31.7406867438       10.2031118360  SOLV      567             0.0000000000
      1731       550  TIP3      H1              3.4655164810       30.9387367438        9.8335418360  SOLV      567             0.0000000000
      1732       550  TIP3      H2              4.7761064810       31.5721767438       10.2494518360  SOLV      567             0.0000000000
      1733       551  TIP3      OH2             0.4450464810       25.4009467438        5.5959918360  SOLV      568             0.0000000000
      1734       551  TIP3      H1             -0.0026135190       26.2468167438        5.5776418360  SOLV      568             0.0000000000
      1735       551  TIP3      H2             -0.1158335190       24.8213667438        5.0805018360  SOLV      568             0.0000000000
      1736       552  TIP3      OH2             1.1556564810       27.5629067438        7.7217918360  SOLV      569             0.0000000000
      1737       552  TIP3      H1              1.3690064810       26.7930667438        8.2490918360  SOLV      569             0.0000000000
      1738       552  TIP3      H2              1.8934164810       27.6525767438        7.1185518360  SOLV      569             0.0000000000
      1739       553  TIP3      OH2            11.3607564810       35.7197967438        8.5887618360  SOLV      570             0.0000000000
      1740       553  TIP3      H1             11.9803964810       35.0432667438        8.3156818360  SOLV      570             0.0000000000
      1741       553  TIP3      H2             11.1524964810       35.5018767438        9.4972518360  SOLV      570             0.0000000000
      1742       554  TIP3      OH2             8.9326264810       30.1087267438       10.4813118360  SOLV      571             0.0000000000
      1743       554  TIP3      H1              9.2364164810       29.4228667438        9.8867218360  SOLV      571             0.0000000000
      1744       554  TIP3      H2              9.6540264810       30.2275967438       11.0991118360  SOLV      571             0.0000000000
      1745       555  TIP3      OH2            17.5956064810       21.7102567438       11.3419318360  SOLV      572             0.0000000000
      1746       555  TIP3      H1             17.6448264810       22.3203767438       12.0778418360  SOLV      572             0.0000000000
      1747       555  TIP3      H2             18.0211164810       22.1713467438       10.6190418360  SOLV      572             0.0000000000
      1748       556  TIP3      OH2            12.0733264810       24.5029667438       10.8087918360  SOLV      573             0.0000000000
      1749       556  TIP3      H1             12.2159164810       23.5566667438       10.8289518360  SOLV      573             0.0000000000
      1750       556  TIP3      H2             11.9672264810       24.7099467438        9.8802818360  SOLV      573             0.0000000000
      1751       557  TIP3      OH2             5.2281564810       22.6046067438        8.0812718360  SOLV      574             0.0000000000
      1752       557  TIP3      H1              5.2712664810       23.4644567438        7.6629018360  SOLV      574             0.0000000000
      1753       557  TIP3      H2              4.7705664810       22.0520767438        7.4475918360  SOLV      574             0.0000000000
      1754       558  TIP3      OH2            12.9504264810       22.7351667438        6.4821018360  SOLV      575             0.0000000000
      1755       558  TIP3      H1             13.5968564810       22.4064867438        7.1068618360  SOLV      575             0.0000000000
      1756       558  TIP3      H2             13.4603664810       23.2530667438        5.8592418360  SOLV      575             0.0000000000
      1757       559  TIP3      OH2             1.8483064810       25.0011867438        8.8434118360  SOLV      576             0.0000000000
      1758       559  TIP3      H1              2.5019664810       24.4513567438        9.2754218360  SOLV      576             0.0000000000
      1759       559  TIP3      H2              1.8722364810       24.7270867438        7.9266118360  SOLV      576             0.0000000000
      1760       560  TIP3      OH2             7.0047564810       26.5513167438        8.0585618360  SOLV      577             0.0000000000
      1761       560  TIP3      H1              7.6208564810       26.0248567438        8.5679618360  SOLV      577             0.0000000000
      1762       560  TIP3      H2              6.4186364810       25.9111867438        7.6549218360  SOLV      577             0.0000000000
      1763       561  TIP3      OH2            17.9870664810       23.1881767438       13.5779118360  SOLV      578             0.0000000000
      1764       561  TIP3      H1             17.2985264810       23.8462467438       13.4825718360  SOLV      578             0.0000000000
      1765       561  TIP3      H2             18.0025264810       22.9909667438       14.5144518360  SOLV      578             0.0000000000
      1766       562  TIP3      OH2             4.0383464810       21.5224467438       12.1553518360  SOLV      579             0.0000000000
      1767       562  TIP3      H1              3.8195164810       22.0525067438       11.3889518360  SOLV      579             0.0000000000
      1768       562  TIP3      H2              3.3704364810       21.7489967438       12.8024918360  SOLV      579             0.0000000000
      1769       563  TIP3      OH2            11.4073264810       31.0225567438        5.6992618360  SOLV      580             0.0000000000
      1770       563  TIP3      H1             11.1118364810       30.6997867438        4.8479518360  SOLV      580             0.0000000000
      1771       563  TIP3      H2             11.0831064810       31.9222267438        5.7405218360  SOLV      580             0.0000000000
      1772       564  TIP3      OH2             6.6074864810       29.1980167438       12.4427218360  SOLV      581             0.0000000000
      1773       564  TIP3      H1              5.8673964810       29.7961667438       12.5462418360  SOLV      581             0.0000000000
      1774       564  TIP3      H2              7.3214364810       29.7519767438       12.1270818360  SOLV      581             0.0000000000
      1775       565  TIP3      OH2            14.7142664810       22.0260967438        8.4626918360  SOLV      582             0.0000000000
      1776       565  TIP3      H1             14.4990664810       21.2604367438        8.9952918360  SOLV      582             0.0000000000
      1777       565  TIP3      H2             15.3700064810       22.4985567438        8.9755418360  SOLV      582             0.0000000000
      1778       566  TIP3      OH2             3.6320764810       23.4146267438       10.1075718360  SOLV      583             0.0000000000
      1779       566  TIP3      H1              4.2457064810       24.0473867438       10.4808118360  SOLV      583             0.0000000000
      1780       566  TIP3      H2              4.1441464810       22.9421267438        9.4512618360  SOLV      583             0.0000000000
      1781       567  TIP3      OH2             5.0149164810       31.1623167438       13.2298718360  SOLV      584             0.0000000000
      1782       567  TIP3      H1              5.0096764810       32.0416667438       12.8518018360  SOLV      584             0.0000000000
      1783       567  TIP3      H2              4.1613264810       31.0787267438       13.6548618360  SOLV      584             0.0000000000
      1784       568  TIP3      OH2             1.1360064810       30.8331067438        4.0118018360  SOLV      585             0.0000000000
      1785       568  TIP3      H1              0.8640964810       31.0622067438        3.1230918360  SOLV      585             0.0000000000
      1786       568  TIP3      H2              1.1815764810       31.6709867438        4.4723318360  SOLV      585             0.0000000000
      1787       569  TIP3      OH2            14.7609764810       32.4546967438       10.7246518360  SOLV      586             0.0000000000
      1788       569  TIP3      H1             13.8193464810       32.5130867438       10.8863418360  SOLV      586             0.0000000000
      1789       569  TIP3      H2             15.0375864810       33.3607467438       10.5876218360  SOLV      586             0.0000000000
      1790       570  TIP3      OH2            15.0616764810       20.7412267438       12.1420418360  SOLV      587             0.0000000000
      1791       570  TIP3      H1             14.3255964810       21.3519367438       12.1041718360  SOLV      587             0.0000000000
      1792       570  TIP3      H2             15.7450764810       21.1561267438       11.6156818360  SOLV      587             0.0000000000
      1793       571  TIP3      OH2             8.0648164810       18.8279567438        9.6078418360  SOLV      588             0.0000000000
      1794       571  TIP3      H1              7.9472364810       17.8795567438        9.5536718360  SOLV      588             0.0000000000
      1795       571  TIP3      H2              7.2098264810       19.1605667438        9.8809518360  SOLV      588             0.0000000000
      1796       572  TIP3      OH2            13.0130964810       34.2360467438        7.3498118360  SOLV      589             0.0000000000
      1797       572  TIP3      H1             13.4383264810       33.5288367438        6.8647718360  SOLV      589             0.0000000000
      1798       572  TIP3      H2             13.3300964810       35.0373167438        6.9330318360  SOLV      589             0.0000000000
      1799       573  TIP3      OH2            14.1727464810       32.1368967438        5.8584718360  SOLV      590             0.0000000000
      1800       573  TIP3      H1             13.9152264810       31.4469067438        5.2470618360  SOLV      590             0.0000000000
      1801       573  TIP3      H2             14.2438264810       31.6940167438        6.7040618360  SOLV      590             0.0000000000
      1802       574  TIP3      OH2            15.8587664810       30.7035667438       14.3358218360  SOLV      591             0.0000000000
      1803       574  TIP3      H1             15.9983964810       30.1118167438       13.5965218360  SOLV      591             0.0000000000
      1804       574  TIP3      H2             16.0260464810       31.5761567438       13.9797018360  SOLV      591             0.0000000000
      1805       575  TIP3      OH2            10.3313064810       27.6655167438        4.1084218360  SOLV      592             0.0000000000
      1806       575  TIP3      H1              9.6198564810       28.2004867438        3.7564718360  SOLV      592             0.0000000000
      1807       575  TIP3      H2             11.0222664810       27.7207267438        3.4483118360  SOLV      592             0.0000000000
      1808       576  TIP3      OH2            10.3852264810       26.1229467438        1.1469218360  SOLV      593             0.0000000000
      1809       576  TIP3      H1             11.0862164810       26.1456367438        1.7983218360  SOLV      593             0.0000000000
      1810       576  TIP3      H2             10.6875164810       25.4949167438        0.4908518360  SOLV      593             0.0000000000
      1811       577  TIP3      OH2            17.7006964810       27.0433667438       12.4018618360  SOLV      594             0.0000000000
      1812       577  TIP3      H1             17.0481064810       27.7379267438       12.4909518360  SOLV      594             0.0000000000
      1813       577  TIP3      H2             18.1657264810       27.2534567438       11.5920218360  SOLV      594             0.0000000000
      1814       578  TIP3      OH2            13.7370764810       27.8748467438        5.0600118360  SOLV      595             0.0000000000
      1815       578  TIP3      H1             13.0051764810       28.1032167438        5.6330718360  SOLV      595             0.0000000000
      1816       578  TIP3      H2             14.1842964810       27.1611167438        5.5147618360  SOLV      595             0.0000000000
      1817       579  TIP3      OH2            13.6344264810       26.0491067438       14.1277118360  SOLV      596             0.0000000000
      1818       579  TIP3      H1             13.7143364810       26.8125467438       14.6995618360  SOLV      596             0.0000000000
      1819       579  TIP3      H2             13.0331964810       26.3283467438       13.4372218360  SOLV      596             0.0000000000
      1820       580  TIP3      OH2             5.3824464810       28.5054667438        6.9425118360  SOLV      597             0.0000000000
      1821       580  TIP3      H1              5.0519664810       28.1348067438        6.1242118360  SOLV      597             0.0000000000
      1822       580  TIP3      H2              5.9708564810       27.8348667438        7.2893418360  SOLV      597             0.0000000000
      1823       581  TIP3      OH2             6.7491964810       31.9335267438        9.6237318360  SOLV      598             0.0000000000
      1824       581  TIP3      H1              6.6543264810       31.3548367438        8.8671918360  SOLV      598             0.0000000000
      1825       581  TIP3      H2              7.4785564810       31.5620967438       10.1200118360  SOLV      598             0.0000000000
      1826       582  TIP3      OH2             5.7489964810       27.2740267438       10.5760118360  SOLV      599             0.0000000000
      1827       582  TIP3      H1              6.3142464810       27.3954467438        9.8131318360  SOLV      599             0.0000000000
      1828       582  TIP3      H2              6.0678864810       27.9115267438       11.2148618360  SOLV      599             0.0000000000
      1829       583  TIP3      OH2            12.0582164810       32.7772167438       11.3100618360  SOLV      600             0.0000000000
      1830       583  TIP3      H1             11.8178764810       33.4395267438       11.9579818360  SOLV      600             0.0000000000
      1831       583  TIP3      H2             11.8600364810       31.9427367438       11.7350218360  SOLV      600             0.0000000000
      1832       584  TIP3      OH2             6.6290664810       31.6732967438       15.2932018360  SOLV      601             0.0000000000
      1833       584  TIP3      H1              6.3178164810       32.4556167438       15.7485218360  SOLV      601             0.0000000000
      1834       584  TIP3      H2              5.9790864810       31.5202067438       14.6074018360  SOLV      601             0.0000000000
      1835       585  TIP3      OH2            12.6080264810       27.0371367438        2.7451318360  SOLV      602             0.0000000000
      1836       585  TIP3      H1             13.1875764810       27.1871667438        3.4920218360  SOLV      602             0.0000000000
      1837       585  TIP3      H2             13.0220264810       27.5078767438        2.0217718360  SOLV      602             0.0000000000
      1838       586  TIP3      OH2             3.5490564810       27.8714067438       14.5217718360  SOLV      603             0.0000000000
      1839       586  TIP3      H1              3.6193764810       28.5220867438       15.2202718360  SOLV      603             0.0000000000
      1840       586  TIP3      H2              2.6582764810       27.9741567438       14.1868618360  SOLV      603             0.0000000000
      1841       587  TIP3      OH2            10.3345164810       33.7739867438        6.1804418360  SOLV      604             0.0000000000
      1842       587  TIP3      H1             10.8082764810       34.0696167438        6.9578618360  SOLV      604             0.0000000000
      1843       587  TIP3      H2              9.7714464810       34.5121467438        5.9474018360  SOLV      604             0.0000000000
      1844       588  TIP3      OH2             4.8686564810       33.7447967438       16.0565818360  SOLV      605             0.0000000000
      1845       588  TIP3      H1              4.8761864810       33.6087667438       15.1091318360  SOLV      605             0.0000000000
      1846       588  TIP3      H2              3.9526964810       33.6276067438       16.3085818360  SOLV      605             0.0000000000
      1847       589  TIP3      OH2            16.3068664810       18.7871767438        2.5581018360  SOLV      606             0.0000000000
      1848       589  TIP3      H1             15.4069364810       18.9260767438        2.8531618360  SOLV      606             0.0000000000
      1849       589  TIP3      H2             16.5587064810       19.6186367438        2.1562718360  SOLV      606             0.0000000000
      1850       590  TIP3      OH2             4.3727164810       27.5748967438        4.5317918360  SOLV      607             0.0000000000
      1851       590  TIP3      H1              4.0808464810       28.3430667438        4.0409218360  SOLV      607             0.0000000000
      1852       590  TIP3      H2              3.6982364810       26.9155167438        4.3689318360  SOLV      607             0.0000000000
      1853       591  TIP3      OH2            17.4960064810       33.1534167438        0.9344918360  SOLV      608             0.0000000000
      1854       591  TIP3      H1             17.5693564810       34.0924367438        1.1050218360  SOLV      608             0.0000000000
      1855       591  TIP3      H2             18.4015164810       32.8482767438        0.8782218360  SOLV      608             0.0000000000
      1856       592  TIP3      OH2             0.4657264810       29.9378167438       13.3467718360  SOLV      609             0.0000000000
      1857       592  TIP3      H1             -0.0354335190       29.9097567438       12.5317418360  SOLV      609             0.0000000000
      1858       592  TIP3      H2              0.4710964810       29.0321367438       13.6565018360  SOLV      609             0.0000000000
      1859       593  TIP3      OH2             0.2159964810       32.7181967438       10.2307918360  SOLV      610             0.0000000000
      1860       593  TIP3      H1              1.1620564810       32.5738967438       10.2117418360  SOLV      610             0.0000000000
      1861       593  TIP3      H2              0.1036264810       33.5024767438       10.7679118360  SOLV      610             0.0000000000
      1862       594  TIP3      OH2            18.4138464810       33.3841667438       15.9131618360  SOLV      611             0.0000000000
      1863       594  TIP3      H1             18.3645264810       32.4289767438       15.8759218360  SOLV      611             0.0000000000
      1864       594  TIP3      H2             17.5870764810       33.6516967438       16.3145418360  SOLV      611             0.0000000000
      1865       595  TIP3      OH2             9.3922464810       32.9580867438       14.7893018360  SOLV      612             0.0000000000
      1866       595  TIP3      H1              9.4797064810       33.7845467438       15.2642118360  SOLV      612             0.0000000000
      1867       595  TIP3      H2              8.5287564810       32.6284667438       15.0382318360  SOLV      612             0.0000000000
      1868       596  TIP3      OH2             9.8068264810       36.7304567438        4.5953618360  SOLV      613             0.0000000000
      1869       596  TIP3      H1              9.7314264810       36.6091767438        3.6488818360  SOLV      613             0.0000000000
      1870       596  TIP3      H2              9.8396964810       37.6797267438        4.7138218360  SOLV      613             0.0000000000
      1871       597  TIP3      OH2             3.4602064810       35.5191567438        6.3762618360  SOLV      614             0.0000000000
      1872       597  TIP3      H1              3.6122464810       35.1711967438        7.2549118360  SOLV      614             0.0000000000
      1873       597  TIP3      H2              2.6092464810       35.1628867438        6.1209818360  SOLV      614             0.0000000000
      1874       598  TIP3      OH2            12.9084264810       35.8844767438        1.5976018360  SOLV      615             0.0000000000
      1875       598  TIP3      H1             13.2832664810       35.1400867438        1.1268618360  SOLV      615             0.0000000000
      1876       598  TIP3      H2             12.9127964810       35.6145367438        2.5159318360  SOLV      615             0.0000000000
      1877       599  TIP3      OH2            12.5772364810       35.8101867438        4.3468218360  SOLV      616             0.0000000000
      1878       599  TIP3      H1             11.6422164810       35.9103767438        4.5255218360  SOLV      616             0.0000000000
      1879       599  TIP3      H2             12.8574264810       35.1007867438        4.9251418360  SOLV      616             0.0000000000
      1880       600  TIP3      OH2            15.5658264810       24.8774167438       16.3933818360  SOLV      617             0.0000000000
      1881       600  TIP3      H1             15.1585064810       25.3579767438       15.6727118360  SOLV      617             0.0000000000
      1882       600  TIP3      H2             15.6063964810       23.9720167438       16.0854618360  SOLV      617             0.0000000000
      1883       601  TIP3      OH2             2.7147764810       31.2613567438       14.3900518360  SOLV      618             0.0000000000
      1884       601  TIP3      H1              2.9309064810       30.8999167438       15.2496318360  SOLV      618             0.0000000000
      1885       601  TIP3      H2              1.8592464810       30.8867367438       14.1804018360  SOLV      618             0.0000000000
      1886       602  TIP3      OH2             5.3335764810       19.7314067438       10.3854718360  SOLV      619             0.0000000000
      1887       602  TIP3      H1              4.4719464810       19.6442267438        9.9777618360  SOLV      619             0.0000000000
      1888       602  TIP3      H2              5.3111464810       20.5874167438       10.8132318360  SOLV      619             0.0000000000
      1889       603  TIP3      OH2             9.9963564810       19.4534467438       13.7601718360  SOLV      620             0.0000000000
      1890       603  TIP3      H1             10.4166664810       19.0381567438       14.5132318360  SOLV      620             0.0000000000
      1891       603  TIP3      H2              9.0633164810       19.2747767438       13.8773718360  SOLV      620             0.0000000000
      1892       604  TIP3      OH2            13.3228464810       23.2089667438       14.6136218360  SOLV      621             0.0000000000
      1893       604  TIP3      H1             12.8087964810       23.0831867438       15.4112218360  SOLV      621             0.0000000000
      1894       604  TIP3      H2             13.1673164810       24.1212767438       14.3692418360  SOLV      621             0.0000000000
      1895       605  TIP3      OH2            14.0853364810       28.0699667438        0.3749218360  SOLV      622             0.0000000000
      1896       605  TIP3      H1             14.1274164810       27.8473567438       -0.5550781640  SOLV      622             0.0000000000
      1897       605  TIP3      H2             14.9345464810       28.4686767438        0.5649118360  SOLV      622             0.0000000000
      1898       606  TIP3      OH2             9.6580864810       21.9457867438        1.0452518360  SOLV      623             0.0000000000
      1899       606  TIP3      H1              9.4045664810       21.9649467438        1.9680618360  SOLV      623             0.0000000000
      1900       606  TIP3      H2              9.4012964810       21.0743267438        0.7438718360  SOLV      623             0.0000000000
      1901       607  TIP3      OH2             5.4245864810       24.6968567438       11.4804918360  SOLV      624             0.0000000000
      1902       607  TIP3      H1              4.7827964810       24.6565867438       12.1895018360  SOLV      624             0.0000000000
      1903       607  TIP3      H2              5.4617864810       25.6233267438       11.2427918360  SOLV      624             0.0000000000
      1904       608  TIP3      OH2             5.4214964810       24.9178667438        6.3924918360  SOLV      625             0.0000000000
      1905       608  TIP3      H1              4.5287864810       24.5774767438        6.3338718360  SOLV      625             0.0000000000
      1906       608  TIP3      H2              5.8721564810       24.5409567438        5.6368118360  SOLV      625             0.0000000000
      1907       609  TIP3      OH2            10.9570464810       25.3338967438        5.2095718360  SOLV      626             0.0000000000
      1908       609  TIP3      H1             10.5480764810       26.1487567438        4.9180518360  SOLV      626             0.0000000000
      1909       609  TIP3      H2             11.6776664810       25.1939067438        4.5952818360  SOLV      626             0.0000000000
      1910       610  TIP3      OH2            10.0592064810       25.5095367438       16.6976418360  SOLV      627             0.0000000000
      1911       610  TIP3      H1              9.4965864810       24.8046967438       17.0184218360  SOLV      627             0.0000000000
      1912       610  TIP3      H2             10.8855464810       25.3887267438       17.1654018360  SOLV      627             0.0000000000
      1913       611  TIP3      OH2            11.9618164810       24.7799367438        8.0235418360  SOLV      628             0.0000000000
      1914       611  TIP3      H1             11.7662664810       25.3856167438        7.3086018360  SOLV      628             0.0000000000
      1915       611  TIP3      H2             12.1430764810       23.9464567438        7.5891718360  SOLV      628             0.0000000000
      1916       612  TIP3      OH2             3.1746364810       25.0172067438       13.3476918360  SOLV      629             0.0000000000
      1917       612  TIP3      H1              3.1365764810       25.4173667438       14.2164018360  SOLV      629             0.0000000000
      1918       612  TIP3      H2              2.6837464810       24.2004467438       13.4379818360  SOLV      629             0.0000000000
      1919       613  TIP3      OH2             6.5403764810       22.3914367438        0.1462918360  SOLV      630             0.0000000000
      1920       613  TIP3      H1              6.1094464810       21.9464467438        0.8760318360  SOLV      630             0.0000000000
      1921       613  TIP3      H2              5.8222464810       22.7630667438       -0.3659581640  SOLV      630             0.0000000000
      1922       614  TIP3      OH2            -0.2172835190       22.1333867438        7.1981618360  SOLV      631             0.0000000000
      1923       614  TIP3      H1              0.4134864810       22.1045967438        7.9175518360  SOLV      631             0.0000000000
      1924       614  TIP3      H2              0.2321464810       21.7082567438        6.4677518360  SOLV      631             0.0000000000
      1925       615  TIP3      OH2             1.0569264810       22.8795867438        2.6222018360  SOLV      632             0.0000000000
      1926       615  TIP3      H1              1.5310964810       23.4705767438        2.0372918360  SOLV      632             0.0000000000
      1927       615  TIP3      H2              0.3395664810       23.4098767438        2.9692118360  SOLV      632             0.0000000000
      1928       616  TIP3      OH2            11.2257364810       26.4180667438       12.6947818360  SOLV      633             0.0000000000
      1929       616  TIP3      H1             11.5492164810       25.7870367438       12.0518318360  SOLV      633             0.0000000000
      1930       616  TIP3      H2             10.7856664810       25.8832867438       13.3555218360  SOLV      633             0.0000000000
      1931       617  TIP3      OH2             8.0030264810       22.3456167438        7.4789018360  SOLV      634             0.0000000000
      1932       617  TIP3      H1              7.0921364810       22.4022967438        7.7675018360  SOLV      634             0.0000000000
      1933       617  TIP3      H2              8.5083164810       22.2851667438        8.2896218360  SOLV      634             0.0000000000
      1934       618  TIP3      OH2             2.8313664810       23.9742467438        6.3056618360  SOLV      635             0.0000000000
      1935       618  TIP3      H1              1.9421664810       24.0737967438        5.9656218360  SOLV      635             0.0000000000
      1936       618  TIP3      H2              3.1278564810       23.1325467438        5.9594518360  SOLV      635             0.0000000000
      1937       619  TIP3      OH2             6.4845464810       23.9745067438        3.9621218360  SOLV      636             0.0000000000
      1938       619  TIP3      H1              7.4160964810       24.1035067438        4.1404318360  SOLV      636             0.0000000000
      1939       619  TIP3      H2              6.2695764810       24.6439367438        3.3125918360  SOLV      636             0.0000000000
      1940       620  TIP3      OH2            12.4082164810       21.5802467438       10.7430818360  SOLV      637             0.0000000000
      1941       620  TIP3      H1             11.7313764810       21.7115567438       11.4070518360  SOLV      637             0.0000000000
      1942       620  TIP3      H2             11.9227064810       21.4251967438        9.9328518360  SOLV      637             0.0000000000
      1943       621  TIP3      OH2             5.1585664810       25.1687267438        1.5287318360  SOLV      638             0.0000000000
      1944       621  TIP3      H1              4.6160764810       24.7891067438        0.8374918360  SOLV      638             0.0000000000
      1945       621  TIP3      H2              5.9920564810       25.3631967438        1.1001418360  SOLV      638             0.0000000000
      1946       622  TIP3      OH2            15.6957264810       37.2517867438       17.0198418360  SOLV      639             0.0000000000
      1947       622  TIP3      H1             15.8955964810       37.6759767438       16.1853718360  SOLV      639             0.0000000000
      1948       622  TIP3      H2             16.3510964810       37.5956067438       17.6268818360  SOLV      639             0.0000000000
      1949       623  TIP3      OH2             3.2937064810       29.7259167438       16.6278918360  SOLV      640             0.0000000000
      1950       623  TIP3      H1              4.0259464810       29.9805067438       17.1893418360  SOLV      640             0.0000000000
      1951       623  TIP3      H2              2.5135764810       29.9304567438       17.1434318360  SOLV      640             0.0000000000
      1952       624  TIP3      OH2             9.3229964810       25.1329167438        9.3658618360  SOLV      641             0.0000000000
      1953       624  TIP3      H1              9.8873364810       24.5865767438        8.8188218360  SOLV      641             0.0000000000
      1954       624  TIP3      H2              9.1753364810       24.6111067438       10.1546218360  SOLV      641             0.0000000000
      1955       625  TIP3      OH2             4.3249664810       21.2695267438        5.7843418360  SOLV      642             0.0000000000
      1956       625  TIP3      H1              4.0079164810       20.3670567438        5.7488818360  SOLV      642             0.0000000000
      1957       625  TIP3      H2              5.1063764810       21.2712667438        5.2315018360  SOLV      642             0.0000000000
      1958       626  TIP3      OH2             7.9495864810       23.5215267438       11.7799018360  SOLV      643             0.0000000000
      1959       626  TIP3      H1              7.1141164810       23.9754767438       11.8901418360  SOLV      643             0.0000000000
      1960       626  TIP3      H2              8.4736464810       23.7973767438       12.5318918360  SOLV      643             0.0000000000
      1961       627  TIP3      OH2             8.4938464810       29.7342967438        3.4645418360  SOLV      644             0.0000000000
      1962       627  TIP3      H1              7.7489464810       29.2268267438        3.1423318360  SOLV      644             0.0000000000
      1963       627  TIP3      H2              8.3595664810       29.7830967438        4.4110218360  SOLV      644             0.0000000000
      1964       628  TIP3      OH2            15.6437364810       28.8671167438       12.2513018360  SOLV      645             0.0000000000
      1965       628  TIP3      H1             16.2856164810       29.3237467438       11.7075218360  SOLV      645             0.0000000000
      1966       628  TIP3      H2             14.8134264810       28.9803567438       11.7887118360  SOLV      645             0.0000000000
      1967       629  TIP3      OH2            12.3915264810       22.5482867438        1.6638018360  SOLV      646             0.0000000000
      1968       629  TIP3      H1             11.4529464810       22.6598467438        1.5126818360  SOLV      646             0.0000000000
      1969       629  TIP3      H2             12.6887364810       23.4049767438        1.9703718360  SOLV      646             0.0000000000
      1970       630  TIP3      OH2            10.0130564810       29.9186267438       14.7014518360  SOLV      647             0.0000000000
      1971       630  TIP3      H1              9.6676664810       29.5368667438       15.5084118360  SOLV      647             0.0000000000
      1972       630  TIP3      H2              9.8130664810       30.8519867438       14.7727418360  SOLV      647             0.0000000000
      1973       631  TIP3      OH2            13.1098764810       24.4155567438        3.3245418360  SOLV      648             0.0000000000
      1974       631  TIP3      H1             14.0017764810       24.2780567438        3.6436618360  SOLV      648             0.0000000000
      1975       631  TIP3      H2             13.1662364810       25.2061667438        2.7878918360  SOLV      648             0.0000000000
      1976       632  TIP3      OH2             3.6186764810       29.0292967438        9.2343318360  SOLV      649             0.0000000000
      1977       632  TIP3      H1              4.3633964810       29.0268667438        8.6329818360  SOLV      649             0.0000000000
      1978       632  TIP3      H2              3.6963364810       28.2056767438        9.7158418360  SOLV      649             0.0000000000
      1979       633  TIP3      OH2            10.6192564810       31.1927267438        2.4900018360  SOLV      650             0.0000000000
      1980       633  TIP3      H1             10.3240964810       32.0195167438        2.8714818360  SOLV      650             0.0000000000
      1981       633  TIP3      H2              9.9162564810       30.5734167438        2.6861418360  SOLV      650             0.0000000000
      1982       634  TIP3      OH2             0.6266464810       27.4899867438       14.5491818360  SOLV      651             0.0000000000
      1983       634  TIP3      H1              0.8495064810       27.0719467438       15.3809318360  SOLV      651             0.0000000000
      1984       634  TIP3      H2              0.0246564810       26.8774867438       14.1264618360  SOLV      651             0.0000000000
      1985       635  TIP3      OH2             7.6431364810       27.0069767438       16.7621518360  SOLV      652             0.0000000000
      1986       635  TIP3      H1              7.3472164810       26.8412767438       15.8670618360  SOLV      652             0.0000000000
      1987       635  TIP3      H2              8.5746564810       26.7870067438       16.7515418360  SOLV      652             0.0000000000
      1988       636  TIP3      OH2            12.2634164810       32.3801767438       14.6519518360  SOLV      653             0.0000000000
      1989       636  TIP3      H1             11.3628464810       32.5634367438       14.3843418360  SOLV      653             0.0000000000
      1990       636  TIP3      H2             12.2975264810       32.6391067438       15.5728318360  SOLV      653             0.0000000000
      1991       637  TIP3      OH2            17.9947464810       24.6249667438        3.0192118360  SOLV      654             0.0000000000
      1992       637  TIP3      H1             17.4403764810       24.2287667438        2.3469618360  SOLV      654             0.0000000000
      1993       637  TIP3      H2             18.0951064810       25.5354867438        2.7415418360  SOLV      654             0.0000000000
      1994       638  TIP3      OH2            17.9579464810       30.4251367438       15.8563618360  SOLV      655             0.0000000000
      1995       638  TIP3      H1             17.1067964810       30.6635167438       15.4890018360  SOLV      655             0.0000000000
      1996       638  TIP3      H2             18.5482864810       30.4084567438       15.1030718360  SOLV      655             0.0000000000
      1997       639  TIP3      OH2            16.2899164810       33.4110067438        3.4844218360  SOLV      656             0.0000000000
      1998       639  TIP3      H1             15.9170264810       32.5853867438        3.7934818360  SOLV      656             0.0000000000
      1999       639  TIP3      H2             16.5672664810       33.2279467438        2.5867618360  SOLV      656             0.0000000000
      2000       640  TIP3      OH2            13.4503064810       28.2189567438       10.5056118360  SOLV      657             0.0000000000
      2001       640  TIP3      H1             12.5219964810       27.9871467438       10.4785418360  SOLV      657             0.0000000000
      2002       640  TIP3      H2             13.9014164810       27.4419367438       10.1754918360  SOLV      657             0.0000000000
      2003       641  TIP3      OH2             5.9936164810       32.5471167438        6.6384818360  SOLV      658             0.0000000000
      2004       641  TIP3      H1              6.5208364810       33.3205567438        6.4383618360  SOLV      658             0.0000000000
      2005       641  TIP3      H2              5.1134664810       32.7720367438        6.3368818360  SOLV      658             0.0000000000
      2006       642  TIP3      OH2             1.7483864810       27.4095267438        1.2257218360  SOLV      659             0.0000000000
      2007       642  TIP3      H1              2.3643764810       28.0362467438        1.6052018360  SOLV      659             0.0000000000
      2008       642  TIP3      H2              0.8866464810       27.7255067438        1.4973718360  SOLV      659             0.0000000000
      2009       643  TIP3      OH2             7.4208464810       30.2101067438        6.2149118360  SOLV      660             0.0000000000
      2010       643  TIP3      H1              7.1798464810       31.1355467438        6.2564418360  SOLV      660             0.0000000000
      2011       643  TIP3      H2              6.6802064810       29.7512367438        6.6113018360  SOLV      660             0.0000000000
      2012       644  TIP3      OH2             7.9355064810       34.3594667438       12.5300218360  SOLV      661             0.0000000000
      2013       644  TIP3      H1              8.2979764810       35.2140267438       12.2964618360  SOLV      661             0.0000000000
      2014       644  TIP3      H2              8.4670264810       34.0676267438       13.2706518360  SOLV      661             0.0000000000
      2015       645  TIP3      OH2             6.1039264810       35.2318667438        5.7601318360  SOLV      662             0.0000000000
      2016       645  TIP3      H1              5.1539764810       35.3376067438        5.8114618360  SOLV      662             0.0000000000
      2017       645  TIP3      H2              6.4557364810       36.0526067438        6.1048818360  SOLV      662             0.0000000000
      2018       646  TIP3      OH2            11.4795864810       30.4585367438       12.2305818360  SOLV      663             0.0000000000
      2019       646  TIP3      H1             11.0537164810       30.2307067438       13.0569818360  SOLV      663             0.0000000000
      2020       646  TIP3      H2             12.0601664810       29.7197167438       12.0481118360  SOLV      663             0.0000000000
      2021       647  TIP3      OH2            13.6824764810       31.3875867438        1.3044818360  SOLV      664             0.0000000000
      2022       647  TIP3      H1             14.0357864810       31.0075667438        2.1088318360  SOLV      664             0.0000000000
      2023       647  TIP3      H2             12.7338264810       31.2940667438        1.3914118360  SOLV      664             0.0000000000
      2024       648  TIP3      OH2            14.1380064810       35.0104867438       14.7000618360  SOLV      665             0.0000000000
      2025       648  TIP3      H1             13.5363264810       34.4547767438       14.2046918360  SOLV      665             0.0000000000
      2026       648  TIP3      H2             14.4193764810       35.6774667438       14.0738018360  SOLV      665             0.0000000000
      2027       649  TIP3      OH2            18.1859164810       35.8668367438        1.5055018360  SOLV      666             0.0000000000
      2028       649  TIP3      H1             18.9297064810       36.4528867438        1.3656618360  SOLV      666             0.0000000000
      2029       649  TIP3      H2             17.4917264810       36.4354167438        1.8387418360  SOLV      666             0.0000000000
      2030       650  TIP3      OH2             2.2605964810       22.2432567438       14.1073218360  SOLV      667             0.0000000000
      2031       650  TIP3      H1              1.3678264810       22.5817967438       14.0397218360  SOLV      667             0.0000000000
      2032       650  TIP3      H2              2.1618764810       21.3878667438       14.5254018360  SOLV      667             0.0000000000
      2033       651  TIP3      OH2            14.5484064810       30.0597867438        3.5312718360  SOLV      668             0.0000000000
      2034       651  TIP3      H1             14.2711664810       29.3317167438        4.0873818360  SOLV      668             0.0000000000
      2035       651  TIP3      H2             15.4757064810       30.1789867438        3.7365318360  SOLV      668             0.0000000000
      2036       652  TIP3      OH2             1.9117964810       34.0476967438       12.5422618360  SOLV      669             0.0000000000
      2037       652  TIP3      H1              2.1288264810       33.1159367438       12.5112318360  SOLV      669             0.0000000000
      2038       652  TIP3      H2              2.1581464810       34.3221967438       13.4255418360  SOLV      669             0.0000000000
      2039       653  TIP3      OH2             6.7103164810       32.0695767438        2.2077418360  SOLV      670             0.0000000000
      2040       653  TIP3      H1              6.8571164810       31.5495567438        2.9978318360  SOLV      670             0.0000000000
      2041       653  TIP3      H2              6.7074864810       32.9763367438        2.5143318360  SOLV      670             0.0000000000
      2042       654  TIP3      OH2             3.1634264810       29.3219067438        2.7182818360  SOLV      671             0.0000000000
      2043       654  TIP3      H1              2.4773564810       29.6741567438        3.2852518360  SOLV      671             0.0000000000
      2044       654  TIP3      H2              3.6862164810       30.0848667438        2.4717118360  SOLV      671             0.0000000000
      2045       655  TIP3      OH2            10.9949364810       21.9842867438       12.9971818360  SOLV      672             0.0000000000
      2046       655  TIP3      H1             11.6937264810       22.0581567438       13.6471518360  SOLV      672             0.0000000000
      2047       655  TIP3      H2             10.6140764810       21.1197867438       13.1514718360  SOLV      672             0.0000000000
      2048       656  TIP3      OH2            11.7794264810       21.6364567438        4.0944118360  SOLV      673             0.0000000000
      2049       656  TIP3      H1             11.9992564810       22.1079967438        3.2909518360  SOLV      673             0.0000000000
      2050       656  TIP3      H2             12.3378264810       22.0307167438        4.7644718360  SOLV      673             0.0000000000
      2051       657  TIP3      OH2             9.4480364810       33.7669367438        2.9571618360  SOLV      674             0.0000000000
      2052       657  TIP3      H1              8.6316464810       34.2639067438        3.0095918360  SOLV      674             0.0000000000
      2053       657  TIP3      H2              9.9776664810       34.2422867438        2.3170418360  SOLV      674             0.0000000000
      2054       658  TIP3      OH2             8.9794164810       23.3643367438        4.9292518360  SOLV      675             0.0000000000
      2055       658  TIP3      H1              9.7916764810       23.8686567438        4.9754218360  SOLV      675             0.0000000000
      2056       658  TIP3      H2              8.7347164810       23.2193067438        5.8432118360  SOLV      675             0.0000000000
      2057       659  TIP3      OH2             9.5150564810       24.3506067438       14.1139118360  SOLV      676             0.0000000000
      2058       659  TIP3      H1              9.6340864810       24.9241467438       14.8709518360  SOLV      676             0.0000000000
      2059       659  TIP3      H2             10.1705164810       23.6625467438       14.2286918360  SOLV      676             0.0000000000
      2060       660  TIP3      OH2             9.8630864810       20.4456367438        5.8673618360  SOLV      677             0.0000000000
      2061       660  TIP3      H1              9.5164364810       21.0626967438        6.5117918360  SOLV      677             0.0000000000
      2062       660  TIP3      H2             10.5217764810       20.9462067438        5.3859118360  SOLV      677             0.0000000000
      2063       661  TIP3      OH2             6.7863464810       34.8106567438        2.9388518360  SOLV      678             0.0000000000
      2064       661  TIP3      H1              6.9472164810       35.6104067438        2.4381118360  SOLV      678             0.0000000000
      2065       661  TIP3      H2              6.5891264810       35.1172567438        3.8239118360  SOLV      678             0.0000000000
      2066       662  TIP3      OH2             5.5207864810       21.5085767438        2.5546118360  SOLV      679             0.0000000000
      2067       662  TIP3      H1              5.4372664810       22.3968867438        2.9012518360  SOLV      679             0.0000000000
      2068       662  TIP3      H2              6.4108164810       21.2432467438        2.7862918360  SOLV      679             0.0000000000
      2069       663  TIP3      OH2            15.7196364810       22.2576367438       14.9488818360  SOLV      680             0.0000000000
      2070       663  TIP3      H1             14.8032164810       22.5198067438       14.8612518360  SOLV      680             0.0000000000
      2071       663  TIP3      H2             16.0551364810       22.2545367438       14.0524118360  SOLV      680             0.0000000000
      2072       664  TIP3      OH2            14.3217364810       26.0077367438        9.0446118360  SOLV      681             0.0000000000
      2073       664  TIP3      H1             13.5241764810       25.5927567438        8.7161118360  SOLV      681             0.0000000000
      2074       664  TIP3      H2             14.7668464810       25.3171067438        9.5356618360  SOLV      681             0.0000000000
      2075       665  TIP3      OH2             3.7793164810       31.9357967438        1.6150618360  SOLV      682             0.0000000000
      2076       665  TIP3      H1              4.3714664810       32.6352767438        1.8913018360  SOLV      682             0.0000000000
      2077       665  TIP3      H2              4.2386164810       31.5027467438        0.8955218360  SOLV      682             0.0000000000
      2078       666  TIP3      OH2             2.0952364810       24.6000967438        0.7310018360  SOLV      683             0.0000000000
      2079       666  TIP3      H1              2.0504964810       25.5394067438        0.9097018360  SOLV      683             0.0000000000
      2080       666  TIP3      H2              1.2075564810       24.3645867438        0.4612118360  SOLV      683             0.0000000000
      2081       667  TIP3      OH2            15.4081964810       35.2639867438       10.6669618360  SOLV      684             0.0000000000
      2082       667  TIP3      H1             15.2526264810       35.9424267438       10.0098918360  SOLV      684             0.0000000000
      2083       667  TIP3      H2             16.3408364810       35.3359167438       10.8700218360  SOLV      684             0.0000000000
      2084       668  TIP3      OH2             2.9034364810       19.3817567438        9.4041018360  SOLV      685             0.0000000000
      2085       668  TIP3      H1              2.6744164810       19.4410067438        8.4766018360  SOLV      685             0.0000000000
      2086       668  TIP3      H2              2.4607764810       18.5903067438        9.7105118360  SOLV      685             0.0000000000
      2087       669  TIP3      OH2             1.8337664810       33.3224667438        5.5646818360  SOLV      686             0.0000000000
      2088       669  TIP3      H1              1.0016264810       33.7947367438        5.5918218360  SOLV      686             0.0000000000
      2089       669  TIP3      H2              2.3795964810       33.8322267438        4.9659918360  SOLV      686             0.0000000000
      2090       670  TIP3      OH2             1.1221364810       35.9348367438       16.8944818360  SOLV      687             0.0000000000
      2091       670  TIP3      H1              1.6623564810       35.7182367438       17.6544018360  SOLV      687             0.0000000000
      2092       670  TIP3      H2              0.6409364810       35.1294367438       16.7047318360  SOLV      687             0.0000000000
      2093       671  TIP3      OH2             5.7194764810       34.8542767438       18.5149018360  SOLV      688             0.0000000000
      2094       671  TIP3      H1              6.4871964810       34.3953567438       18.8558218360  SOLV      688             0.0000000000
      2095       671  TIP3      H2              5.6980964810       34.6282567438       17.5850218360  SOLV      688             0.0000000000
      2096       672  TIP3      OH2            12.2963464810       33.2343867438       17.2440518360  SOLV      689             0.0000000000
      2097       672  TIP3      H1             11.9452964810       32.3776867438       17.4870918360  SOLV      689             0.0000000000
      2098       672  TIP3      H2             13.0226664810       33.3770567438       17.8509518360  SOLV      689             0.0000000000
      2099       673  TIP3      OH2            14.4157264810       34.1793267438        0.1238818360  SOLV      690             0.0000000000
      2100       673  TIP3      H1             14.6987664810       33.3848467438        0.5765718360  SOLV      690             0.0000000000
      2101       673  TIP3      H2             15.1555164810       34.4124267438       -0.4370081640  SOLV      690             0.0000000000
      2102       674  TIP3      OH2             1.0290864810       29.7452467438       17.8489118360  SOLV      691             0.0000000000
      2103       674  TIP3      H1              1.1731364810       28.8433167438       17.5625818360  SOLV      691             0.0000000000
      2104       674  TIP3      H2              0.2568264810       30.0314567438       17.3611418360  SOLV      691             0.0000000000
      2105       675  TIP3      OH2             7.6846964810       29.7150567438       17.2815518360  SOLV      692             0.0000000000
      2106       675  TIP3      H1              7.3560764810       29.9858667438       16.4242918360  SOLV      692             0.0000000000
      2107       675  TIP3      H2              7.8365164810       28.7740367438       17.1940518360  SOLV      692             0.0000000000
      2108       676  TIP3      OH2            10.7227964810       31.1359867438       -0.2828281640  SOLV      693             0.0000000000
      2109       676  TIP3      H1             10.4542064810       31.3161967438        0.6180618360  SOLV      693             0.0000000000
      2110       676  TIP3      H2             10.5163564810       30.2106067438       -0.4142481640  SOLV      693             0.0000000000
      2111       677  TIP3      OH2            13.4192164810       29.6307867438       14.6647818360  SOLV      694             0.0000000000
      2112       677  TIP3      H1             14.1646964810       30.2191567438       14.5451818360  SOLV      694             0.0000000000
      2113       677  TIP3      H2             12.6618964810       30.2127567438       14.7280918360  SOLV      694             0.0000000000
      2114       678  TIP3      OH2             1.8617364810       26.9455767438       17.2688418360  SOLV      695             0.0000000000
      2115       678  TIP3      H1              2.2698564810       26.0882367438       17.1479018360  SOLV      695             0.0000000000
      2116       678  TIP3      H2              1.6014964810       26.9597067438       18.1898718360  SOLV      695             0.0000000000
      2117       679  TIP3      OH2             6.5198364810       28.0614367438        2.2871718360  SOLV      696             0.0000000000
      2118       679  TIP3      H1              6.0600364810       27.5772667438        2.9730218360  SOLV      696             0.0000000000
      2119       679  TIP3      H2              6.7747064810       27.3929767438        1.6512218360  SOLV      696             0.0000000000
      2120       680  TIP3      OH2             5.8087664810       25.9541467438       14.6431318360  SOLV      697             0.0000000000
      2121       680  TIP3      H1              5.1903764810       26.6288067438       14.9236018360  SOLV      697             0.0000000000
      2122       680  TIP3      H2              6.1528864810       26.2755367438       13.8097518360  SOLV      697             0.0000000000
      2123       681  TIP3      OH2             7.5908764810       26.3046167438        0.5494918360  SOLV      698             0.0000000000
      2124       681  TIP3      H1              7.4103764810       26.1497367438       -0.3776781640  SOLV      698             0.0000000000
      2125       681  TIP3      H2              8.5409264810       26.4124867438        0.5942818360  SOLV      698             0.0000000000
      2126       682  TIP3      OH2            10.8285864810       28.4256767438       17.9206118360  SOLV      699             0.0000000000
      2127       682  TIP3      H1             11.7817064810       28.5095867438       17.8932118360  SOLV      699             0.0000000000
      2128       682  TIP3      H2             10.6680464810       27.7138567438       18.5401018360  SOLV      699             0.0000000000
      2129       683  TIP3      OH2             6.1481364810       23.3092267438       15.7254418360  SOLV      700             0.0000000000
      2130       683  TIP3      H1              6.2982264810       22.5803567438       15.1234118360  SOLV      700             0.0000000000
      2131       683  TIP3      H2              6.1503764810       24.0863967438       15.1666618360  SOLV      700             0.0000000000
      2132       684  TIP3      OH2             6.5607064810       21.6788067438       13.2181818360  SOLV      701             0.0000000000
      2133       684  TIP3      H1              7.0964564810       22.1304767438       12.5661118360  SOLV      701             0.0000000000
      2134       684  TIP3      H2              5.7086664810       21.5707867438       12.7955918360  SOLV      701             0.0000000000
      2135       685  TIP3      OH2             8.1425464810       27.1184267438       13.4577018360  SOLV      702             0.0000000000
      2136       685  TIP3      H1              8.8930264810       26.9621767438       12.8844818360  SOLV      702             0.0000000000
      2137       685  TIP3      H2              7.8033764810       27.9700867438       13.1822518360  SOLV      702             0.0000000000
      2138       686  TIP3      OH2            12.5581664810       24.9336067438       18.4862318360  SOLV      703             0.0000000000
      2139       686  TIP3      H1             12.7502964810       24.0025467438       18.3746818360  SOLV      703             0.0000000000
      2140       686  TIP3      H2             13.4157964810       25.3585567438       18.4757718360  SOLV      703             0.0000000000
      2141       687  TIP3      OH2            13.8748864810       27.7221267438       16.5635018360  SOLV      704             0.0000000000
      2142       687  TIP3      H1             13.5933864810       28.4315867438       15.9858818360  SOLV      704             0.0000000000
      2143       687  TIP3      H2             14.8173164810       27.6494267438       16.4126218360  SOLV      704             0.0000000000
      2144       688  TIP3      OH2             4.6267664810       24.5075767438       17.6370018360  SOLV      705             0.0000000000
      2145       688  TIP3      H1              3.8596664810       23.9750567438       17.4267618360  SOLV      705             0.0000000000
      2146       688  TIP3      H2              5.3056664810       24.1976167438       17.0376318360  SOLV      705             0.0000000000
      2147       689  TIP3      OH2             7.3662564810       19.1353767438       13.6495418360  SOLV      706             0.0000000000
      2148       689  TIP3      H1              7.2682164810       20.0816967438       13.5441618360  SOLV      706             0.0000000000
      2149       689  TIP3      H2              6.6238764810       18.7627567438       13.1738918360  SOLV      706             0.0000000000
      2150       690  TIP3      OH2             8.6303064810       23.4569167438       17.2133818360  SOLV      707             0.0000000000
      2151       690  TIP3      H1              8.3948464810       23.2375867438       18.1148718360  SOLV      707             0.0000000000
      2152       690  TIP3      H2              7.8469964810       23.2500367438       16.7036318360  SOLV      707             0.0000000000
      2153       691  TIP3      OH2            11.3459664810       22.5842667438       16.2887318360  SOLV      708             0.0000000000
      2154       691  TIP3      H1             10.3985064810       22.6162367438       16.4210618360  SOLV      708             0.0000000000
      2155       691  TIP3      H2             11.6586364810       21.9589767438       16.9425518360  SOLV      708             0.0000000000
      2156       692  TIP3      OH2            12.9801164810       21.2183767438       18.2939218360  SOLV      709             0.0000000000
      2157       692  TIP3      H1             12.8832964810       20.2661067438       18.2881118360  SOLV      709             0.0000000000
      2158       692  TIP3      H2             12.6584264810       21.4870567438       19.1544718360  SOLV      709             0.0000000000
      2159       693  TIP3      OH2             2.8070464810       22.4279567438       17.3414718360  SOLV      710             0.0000000000
      2160       693  TIP3      H1              3.0187864810       21.7215667438       16.7312218360  SOLV      710             0.0000000000
      2161       693  TIP3      H2              2.6957964810       21.9905567438       18.1855918360  SOLV      710             0.0000000000
      2162       694  TIP3      OH2             7.5880664810       18.4291167438       16.3208218360  SOLV      711             0.0000000000
      2163       694  TIP3      H1              8.2999064810       17.7893367438       16.3067318360  SOLV      711             0.0000000000
      2164       694  TIP3      H2              7.4871064810       18.6959467438       15.4071318360  SOLV      711             0.0000000000
      2165       695  TIP3      OH2             7.9418164810       20.1119567438       18.3744518360  SOLV      712             0.0000000000
      2166       695  TIP3      H1              7.8100364810       19.6363367438       17.5543018360  SOLV      712             0.0000000000
      2167       695  TIP3      H2              7.3425564810       20.8563167438       18.3191618360  SOLV      712             0.0000000000
      2168       696  TIP3      OH2             7.4880464810       36.9949867438        1.5508518360  SOLV      713             0.0000000000
      2169       696  TIP3      H1              8.4211164810       37.1528567438        1.6946918360  SOLV      713             0.0000000000
      2170       696  TIP3      H2              7.2239264810       37.6702867438        0.9260018360  SOLV      713             0.0000000000
      2171       697  TIP3      OH2             1.0565364810       31.6313667438        1.0336618360  SOLV      714             0.0000000000
      2172       697  TIP3      H1              1.9704564810       31.7102567438        1.3070518360  SOLV      714             0.0000000000
      2173       697  TIP3      H2              1.0638464810       30.9443267438        0.3672218360  SOLV      714             0.0000000000
      2174       698  TIP3      OH2             0.5755164810       35.1049167438        7.9156718360  SOLV      715             0.0000000000
      2175       698  TIP3      H1              0.2411964810       34.2246467438        8.0876918360  SOLV      715             0.0000000000
      2176       698  TIP3      H2              0.7977564810       35.4504167438        8.7802318360  SOLV      715             0.0000000000
      2177       699  TIP3      OH2            18.1239964810       35.9145567438       10.8961518360  SOLV      716             0.0000000000
      2178       699  TIP3      H1             18.1026664810       36.0993967438       11.8350918360  SOLV      716             0.0000000000
      2179       699  TIP3      H2             18.8146164810       36.4829567438       10.5552918360  SOLV      716             0.0000000000
      2180       700  TIP3      OH2            17.6872864810       35.4816667438       13.8180618360  SOLV      717             0.0000000000
      2181       700  TIP3      H1             17.2001564810       34.7460767438       13.4468018360  SOLV      717             0.0000000000
      2182       700  TIP3      H2             18.2365564810       35.0880567438       14.4960018360  SOLV      717             0.0000000000
      2183       701  TIP3      OH2            16.1380164810       31.2714767438       18.4560918360  SOLV      718             0.0000000000
      2184       701  TIP3      H1             15.2721264810       31.1664467438       18.8503218360  SOLV      718             0.0000000000
      2185       701  TIP3      H2             16.5146064810       32.0298067438       18.9025618360  SOLV      718             0.0000000000
      2186       702  TIP3      OH2            17.4389864810       29.5278467438        3.9703418360  SOLV      719             0.0000000000
      2187       702  TIP3      H1             18.2891264810       29.9489367438        4.0975018360  SOLV      719             0.0000000000
      2188       702  TIP3      H2             17.4444964810       28.7878567438        4.5774818360  SOLV      719             0.0000000000
      2189       703  TIP3      OH2            17.8335464810       27.5815867438        5.7939118360  SOLV      720             0.0000000000
      2190       703  TIP3      H1             17.1070064810       27.1018467438        6.1916718360  SOLV      720             0.0000000000
      2191       703  TIP3      H2             18.4148764810       27.7870567438        6.5260718360  SOLV      720             0.0000000000
      2192       704  TIP3      OH2            17.5926664810       30.3663367438       10.7416718360  SOLV      721             0.0000000000
      2193       704  TIP3      H1             18.4260864810       29.9883367438       10.4610318360  SOLV      721             0.0000000000
      2194       704  TIP3      H2             17.7046964810       31.3094567438       10.6225818360  SOLV      721             0.0000000000
      2195       705  TIP3      OH2            16.0788964810       33.2440867438       13.0485118360  SOLV      722             0.0000000000
      2196       705  TIP3      H1             15.4314264810       33.5692367438       13.6740318360  SOLV      722             0.0000000000
      2197       705  TIP3      H2             15.5612964810       32.8038567438       12.3743418360  SOLV      722             0.0000000000
      2198       706  TIP3      OH2            18.1018564810       27.4824367438        2.1850418360  SOLV      723             0.0000000000
      2199       706  TIP3      H1             17.5799664810       27.8388467438        1.4661318360  SOLV      723             0.0000000000
      2200       706  TIP3      H2             18.0687764810       28.1572167438        2.8631318360  SOLV      723             0.0000000000
      2201       707  TIP3      OH2            16.4507564810       24.7219967438        0.7357518360  SOLV      724             0.0000000000
      2202       707  TIP3      H1             16.5471964810       25.3886967438        0.0557218360  SOLV      724             0.0000000000
      2203       707  TIP3      H2             16.3107164810       23.9066267438        0.2543018360  SOLV      724             0.0000000000
      2204       708  TIP3      OH2            15.6202264810       26.1022367438        6.3567818360  SOLV      725             0.0000000000
      2205       708  TIP3      H1             15.4701064810       25.1570967438        6.3365618360  SOLV      725             0.0000000000
      2206       708  TIP3      H2             15.2666764810       26.3833767438        7.2006918360  SOLV      725             0.0000000000
      2207       709  TIP3      OH2             0.6554664810       28.1804567438       10.3671618360  SOLV      726             0.0000000000
      2208       709  TIP3      H1              0.8397564810       28.0986267438        9.4314518360  SOLV      726             0.0000000000
      2209       709  TIP3      H2              1.5047564810       28.0561567438       10.7908018360  SOLV      726             0.0000000000
      2210       710  TIP3      OH2            16.4765164810       28.0725667438       15.9956118360  SOLV      727             0.0000000000
      2211       710  TIP3      H1             17.0592464810       27.3377967438       16.1873318360  SOLV      727             0.0000000000
      2212       710  TIP3      H2             17.0404464810       28.8445967438       16.0421918360  SOLV      727             0.0000000000
      2213       711  TIP3      OH2            17.9732264810       25.9751467438       16.6801518360  SOLV      728             0.0000000000
      2214       711  TIP3      H1             17.1098964810       25.5963567438       16.5146218360  SOLV      728             0.0000000000
      2215       711  TIP3      H2             18.5775964810       25.2366267438       16.6057318360  SOLV      728             0.0000000000
      2216       712  TIP3      OH2            15.6981364810       22.1299767438       -0.1466981640  SOLV      729             0.0000000000
      2217       712  TIP3      H1             16.3087164810       21.7586567438        0.4901218360  SOLV      729             0.0000000000
      2218       712  TIP3      H2             14.8612864810       21.7086667438        0.0493018360  SOLV      729             0.0000000000
      2219       713  TIP3      OH2            15.3307064810       23.6848167438        4.8192918360  SOLV      730             0.0000000000
      2220       713  TIP3      H1             15.6104164810       22.7778567438        4.9434618360  SOLV      730             0.0000000000
      2221       713  TIP3      H2             16.0898764810       24.1189667438        4.4302118360  SOLV      730             0.0000000000
      2222       714  TIP3      OH2            15.9425364810       24.2665567438       10.2551818360  SOLV      731             0.0000000000
      2223       714  TIP3      H1             16.8753364810       24.4785467438       10.2207818360  SOLV      731             0.0000000000
      2224       714  TIP3      H2             15.7072864810       24.3677667438       11.1774818360  SOLV      731             0.0000000000
      2225       715  TIP3      OH2            15.9717264810       25.0030867438       13.0311218360  SOLV      732             0.0000000000
      2226       715  TIP3      H1             15.1288564810       25.2711267438       13.3971018360  SOLV      732             0.0000000000
      2227       715  TIP3      H2             16.4141564810       25.8252767438       12.8202318360  SOLV      732             0.0000000000
      2228       716  TIP3      OH2             0.2529464810       23.4509567438       16.5080418360  SOLV      733             0.0000000000
      2229       716  TIP3      H1              1.1724364810       23.3287867438       16.7443518360  SOLV      733             0.0000000000
      2230       716  TIP3      H2             -0.1966035190       22.7009267438       16.8973918360  SOLV      733             0.0000000000
      2231       717  TIP3      OH2            18.2548864810       18.9831067438       18.3846218360  SOLV      734             0.0000000000
      2232       717  TIP3      H1             18.6045864810       18.3294567438       17.7790918360  SOLV      734             0.0000000000
      2233       717  TIP3      H2             18.4018364810       19.8205167438       17.9448818360  SOLV      734             0.0000000000
      2234       718  TIP3      OH2            15.9441864810       20.9477467438        4.8674918360  SOLV      735             0.0000000000
      2235       718  TIP3      H1             16.1266864810       20.4988967438        5.6929918360  SOLV      735             0.0000000000
      2236       718  TIP3      H2             15.3444764810       20.3631867438        4.4039518360  SOLV      735             0.0000000000
      2237       719  TIP3      OH2             1.4741964810       21.7631167438        9.3993318360  SOLV      736             0.0000000000
      2238       719  TIP3      H1              1.9193564810       20.9713667438        9.7013018360  SOLV      736             0.0000000000
      2239       719  TIP3      H2              1.9404964810       22.4796367438        9.8298918360  SOLV      736             0.0000000000
      2240       720  TIP3      OH2            -0.2217735190       24.7624167438       10.4683518360  SOLV      737             0.0000000000
      2241       720  TIP3      H1              0.2702064810       24.5414667438        9.6775518360  SOLV      737             0.0000000000
      2242       720  TIP3      H2              0.1403164810       25.6027567438       10.7493018360  SOLV      737             0.0000000000
      2243       721  TIP3      OH2            17.7746064810       21.0925667438       16.7337518360  SOLV      738             0.0000000000
      2244       721  TIP3      H1             16.8571764810       21.3632767438       16.6981018360  SOLV      738             0.0000000000
      2245       721  TIP3      H2             17.8975464810       20.5574067438       15.9497218360  SOLV      738             0.0000000000
      2246       722  TIP3      OH2            17.8108064810       21.0155567438        1.3955218360  SOLV      739             0.0000000000
      2247       722  TIP3      H1             18.2230664810       20.2941267438        0.9203218360  SOLV      739             0.0000000000
      2248       722  TIP3      H2             18.4924564810       21.6850167438        1.4539518360  SOLV      739             0.0000000000
      2249       723  TIP3      OH2            14.8625964810       36.0044967438        6.4683318360  SOLV      740             0.0000000000
      2250       723  TIP3      H1             15.5148864810       35.6567067438        5.8602418360  SOLV      740             0.0000000000
      2251       723  TIP3      H2             15.3729764810       36.4928167438        7.1143018360  SOLV      740             0.0000000000
      2252       724  TIP3      OH2             2.2473464810       32.9336367438       17.0114218360  SOLV      741             0.0000000000
      2253       724  TIP3      H1              1.4265964810       33.1082867438       16.5508918360  SOLV      741             0.0000000000
      2254       724  TIP3      H2              1.9951264810       32.8601067438       17.9318618360  SOLV      741             0.0000000000
      2255       725  TIP3      OH2             5.2016364810       33.9077567438       13.2698218360  SOLV      742             0.0000000000
      2256       725  TIP3      H1              4.7767464810       34.7176067438       12.9872818360  SOLV      742             0.0000000000
      2257       725  TIP3      H2              6.1059164810       33.9931667438       12.9678018360  SOLV      742             0.0000000000
      2258       726  TIP3      OH2             9.5127764810       35.3067567438       16.2291918360  SOLV      743             0.0000000000
      2259       726  TIP3      H1              9.6975264810       34.9733667438       17.1072218360  SOLV      743             0.0000000000
      2260       726  TIP3      H2             10.3592264810       35.6166167438       15.9071118360  SOLV      743             0.0000000000
      2261       727  TIP3      OH2            11.8578164810       36.5926467438       15.4733318360  SOLV      744             0.0000000000
      2262       727  TIP3      H1             12.5347064810       35.9598767438       15.2332518360  SOLV      744             0.0000000000
      2263       727  TIP3      H2             12.1796964810       36.9936967438       16.2806618360  SOLV      744             0.0000000000
      2264       728  TIP3      OH2            16.7751964810       19.1821967438       14.5528318360  SOLV      745             0.0000000000
      2265       728  TIP3      H1             15.9625464810       19.5072267438       14.1653018360  SOLV      745             0.0000000000
      2266       728  TIP3      H2             17.0080464810       18.4220467438       14.0197418360  SOLV      745             0.0000000000
      2267       729  TIP3      OH2             2.6033064810       37.1641467438       13.3173518360  SOLV      746             0.0000000000
      2268       729  TIP3      H1              1.8829464810       37.6042467438       12.8661218360  SOLV      746             0.0000000000
      2269       729  TIP3      H2              2.2377064810       36.9136167438       14.1657518360  SOLV      746             0.0000000000
      2270       730  TIP3      OH2             5.0705664810       36.7645367438       12.3470718360  SOLV      747             0.0000000000
      2271       730  TIP3      H1              4.2057864810       36.8363867438       12.7510818360  SOLV      747             0.0000000000
      2272       730  TIP3      H2              5.0154664810       37.3112667438       11.5633218360  SOLV      747             0.0000000000
      2273       731  TIP3      OH2             9.7811264810       36.6524267438       11.5226718360  SOLV      748             0.0000000000
      2274       731  TIP3      H1              9.3245264810       37.1813967438       10.8685118360  SOLV      748             0.0000000000
      2275       731  TIP3      H2              9.9439264810       37.2555667438       12.2479018360  SOLV      748             0.0000000000
      2276       732  TIP3      OH2            12.1087564810       35.5303867438       12.4677018360  SOLV      749             0.0000000000
      2277       732  TIP3      H1             11.2041264810       35.6954067438       12.2019118360  SOLV      749             0.0000000000
      2278       732  TIP3      H2             12.5376164810       36.3836067438       12.4020418360  SOLV      749             0.0000000000
      2279       733  TIP3      OH2            14.7129464810       37.1002967438       12.7624818360  SOLV      750             0.0000000000
      2280       733  TIP3      H1             14.5311464810       38.0161867438       12.5519718360  SOLV      750             0.0000000000
      2281       733  TIP3      H2             14.8897264810       36.6900067438       11.9159418360  SOLV      750             0.0000000000
      2282       734  TIP3      OH2             2.0181164810       35.7873967438       10.2275318360  SOLV      751             0.0000000000
      2283       734  TIP3      H1              1.9997164810       35.3619067438       11.0847618360  SOLV      751             0.0000000000
      2284       734  TIP3      H2              2.8229064810       35.4688967438        9.8187518360  SOLV      751             0.0000000000
      2285       735  TIP3      OH2             4.1594264810       34.4972667438        8.8825218360  SOLV      752             0.0000000000
      2286       735  TIP3      H1              3.9404964810       33.5810067438        9.0521218360  SOLV      752             0.0000000000
      2287       735  TIP3      H2              4.9836464810       34.6373067438        9.3486618360  SOLV      752             0.0000000000
      2288       736  TIP3      OH2             6.6966764810       34.9671967438        9.7313218360  SOLV      753             0.0000000000
      2289       736  TIP3      H1              6.9092464810       34.0790967438        9.4444118360  SOLV      753             0.0000000000
      2290       736  TIP3      H2              6.7611864810       34.9329667438       10.6857218360  SOLV      753             0.0000000000
      2291       737  TIP3      OH2            10.2050464810       20.6312567438        8.8756518360  SOLV      754             0.0000000000
      2292       737  TIP3      H1              9.5307264810       20.0018167438        9.1312318360  SOLV      754             0.0000000000
      2293       737  TIP3      H2             10.7689664810       20.1471467438        8.2724418360  SOLV      754             0.0000000000
      2294       738  TIP3      OH2            15.3477664810       18.7386567438        8.9883618360  SOLV      755             0.0000000000
      2295       738  TIP3      H1             15.9515264810       19.2861967438        8.4864618360  SOLV      755             0.0000000000
      2296       738  TIP3      H2             14.4779664810       19.0576967438        8.7477718360  SOLV      755             0.0000000000
      2297       739  TIP3      OH2            17.0748064810       19.8775267438        7.3214518360  SOLV      756             0.0000000000
      2298       739  TIP3      H1             17.6865564810       19.3630967438        6.7948118360  SOLV      756             0.0000000000
      2299       739  TIP3      H2             17.4571464810       20.7547367438        7.3448918360  SOLV      756             0.0000000000
      2300       740  TIP3      OH2             2.5317964810       19.2652867438        6.6976418360  SOLV      757             0.0000000000
      2301       740  TIP3      H1              1.7547764810       19.0307767438        6.1902318360  SOLV      757             0.0000000000
      2302       740  TIP3      H2              3.0621564810       18.4684967438        6.7064418360  SOLV      757             0.0000000000
      2303       741  TIP3      OH2             1.3681364810       19.0630967438        2.5012518360  SOLV      758             0.0000000000
      2304       741  TIP3      H1              1.8072064810       19.6741467438        1.9096018360  SOLV      758             0.0000000000
      2305       741  TIP3      H2              0.7343764810       19.6015067438        2.9752518360  SOLV      758             0.0000000000
      2306       742  TIP3      OH2             7.1110564810       19.1919967438        6.5109518360  SOLV      759             0.0000000000
      2307       742  TIP3      H1              7.9853964810       19.5804267438        6.4813818360  SOLV      759             0.0000000000
      2308       742  TIP3      H2              6.9751364810       18.9767767438        7.4336718360  SOLV      759             0.0000000000
      2309       743  TIP3      OH2            12.6678964810       19.2219767438        8.1601218360  SOLV      760             0.0000000000
      2310       743  TIP3      H1             12.7440564810       19.3171367438        7.2107218360  SOLV      760             0.0000000000
      2311       743  TIP3      H2             12.3928164810       18.3142667438        8.2890318360  SOLV      760             0.0000000000
      2312       744  TIP3      OH2            14.0211564810       19.2477567438        3.8526218360  SOLV      761             0.0000000000
      2313       744  TIP3      H1             13.3182664810       19.8626767438        3.6427618360  SOLV      761             0.0000000000
      2314       744  TIP3      H2             13.5762964810       18.4104267438        3.9837118360  SOLV      761             0.0000000000
      2315       745  TIP3      OH2             1.2690864810       35.0113167438        3.3987618360  SOLV      762             0.0000000000
      2316       745  TIP3      H1              0.5840764810       34.9732067438        2.7312718360  SOLV      762             0.0000000000
      2317       745  TIP3      H2              1.2728064810       35.9240767438        3.6869718360  SOLV      762             0.0000000000
      2318       746  TIP3      OH2             3.2290464810       20.9792467438        0.9436618360  SOLV      763             0.0000000000
      2319       746  TIP3      H1              3.7203864810       20.3494867438        0.4162118360  SOLV      763             0.0000000000
      2320       746  TIP3      H2              3.8526764810       21.2751867438        1.6067818360  SOLV      763             0.0000000000
      2321       747  TIP3      OH2             8.2550564810       21.2723967438        3.4007118360  SOLV      764             0.0000000000
      2322       747  TIP3      H1              8.4331864810       20.6257167438        4.0835718360  SOLV      764             0.0000000000
      2323       747  TIP3      H2              8.2016764810       22.1061667438        3.8678218360  SOLV      764             0.0000000000
      2324       748  TIP3      OH2            10.1334364810       36.2208067438        1.7963818360  SOLV      765             0.0000000000
      2325       748  TIP3      H1             10.9994564810       36.5875467438        1.6182018360  SOLV      765             0.0000000000
      2326       748  TIP3      H2              9.8867164810       35.7816067438        0.9824618360  SOLV      765             0.0000000000
      2327       749  TIP3      OH2            16.8423964810       35.7838367438        4.4754918360  SOLV      766             0.0000000000
      2328       749  TIP3      H1             16.6481064810       35.0360467438        3.9104518360  SOLV      766             0.0000000000
      2329       749  TIP3      H2             16.8034064810       36.5418467438        3.8922818360  SOLV      766             0.0000000000
      2330       750  TIP3      OH2             2.4895964810       19.7794767438       16.2152618360  SOLV      767             0.0000000000
      2331       750  TIP3      H1              2.1234164810       19.0137367438       16.6577318360  SOLV      767             0.0000000000
      2332       750  TIP3      H2              3.4024464810       19.8084967438       16.5017718360  SOLV      767             0.0000000000
      2333       751  TIP3      OH2             4.4626764810       19.1299167438       17.7509718360  SOLV      768             0.0000000000
      2334       751  TIP3      H1              5.3610364810       18.8559367438       17.5663118360  SOLV      768             0.0000000000
      2335       751  TIP3      H2              4.0759864810       18.3875167438       18.2152318360  SOLV      768             0.0000000000
      2336       752  TIP3      OH2             3.0872064810       35.9313967438        0.4239718360  SOLV      769             0.0000000000
      2337       752  TIP3      H1              2.8196664810       36.2176867438        1.2972818360  SOLV      769             0.0000000000
      2338       752  TIP3      H2              3.8584664810       35.3853167438        0.5762218360  SOLV      769             0.0000000000
      2339       753  TIP3      OH2            12.8839064810       18.4624467438       17.9332518360  SOLV      770             0.0000000000
      2340       753  TIP3      H1             12.9606264810       18.0365167438       18.7870218360  SOLV      770             0.0000000000
      2341       753  TIP3      H2             13.7775664810       18.4759167438       17.5906018360  SOLV      770             0.0000000000
      2342       754  TIP3      OH2            16.0600164810       34.5350767438       16.6256718360  SOLV      771             0.0000000000
      2343       754  TIP3      H1             15.2782064810       34.3488767438       16.1057318360  SOLV      771             0.0000000000
      2344       754  TIP3      H2             15.9880064810       35.4645067438       16.8429218360  SOLV      771             0.0000000000
      2345       755  TIP3      OH2            30.1100564810       28.4215167438        6.6563918360  SOLV      772             0.0000000000
      2346       755  TIP3      H1             30.1991664810       29.3653367438        6.5241018360  SOLV      772             0.0000000000
      2347       755  TIP3      H2             29.4718164810       28.1461567438        5.9983318360  SOLV      772             0.0000000000
      2348       756  TIP3      OH2            29.0431864810       27.6765867438       10.0752118360  SOLV      773             0.0000000000
      2349       756  TIP3      H1             29.0049364810       27.0302167438       10.7801718360  SOLV      773             0.0000000000
      2350       756  TIP3      H2             28.7208364810       27.2100267438        9.3040818360  SOLV      773             0.0000000000
      2351       757  TIP3      OH2            21.4116864810       27.2907967438       11.6682018360  SOLV      774             0.0000000000
      2352       757  TIP3      H1             21.4528964810       26.6651267438       12.3914418360  SOLV      774             0.0000000000
      2353       757  TIP3      H2             22.1144564810       27.9146567438       11.8502418360  SOLV      774             0.0000000000
      2354       758  TIP3      OH2            32.7492064810       30.6156267438        8.3767218360  SOLV      775             0.0000000000
      2355       758  TIP3      H1             32.3084764810       29.8952267438        8.8272818360  SOLV      775             0.0000000000
      2356       758  TIP3      H2             32.7361764810       31.3363467438        9.0064918360  SOLV      775             0.0000000000
      2357       759  TIP3      OH2            22.3349964810       31.7406867438       10.2031118360  SOLV      776             0.0000000000
      2358       759  TIP3      H1             21.9655164810       30.9387367438        9.8335418360  SOLV      776             0.0000000000
      2359       759  TIP3      H2             23.2761064810       31.5721767438       10.2494518360  SOLV      776             0.0000000000
      2360       760  TIP3      OH2            18.9450464810       25.4009467438        5.5959918360  SOLV      777             0.0000000000
      2361       760  TIP3      H1             18.4973864810       26.2468167438        5.5776418360  SOLV      777             0.0000000000
      2362       760  TIP3      H2             18.3841664810       24.8213667438        5.0805018360  SOLV      777             0.0000000000
      2363       761  TIP3      OH2            19.6556564810       27.5629067438        7.7217918360  SOLV      778             0.0000000000
      2364       761  TIP3      H1             19.8690064810       26.7930667438        8.2490918360  SOLV      778             0.0000000000
      2365       761  TIP3      H2             20.3934164810       27.6525767438        7.1185518360  SOLV      778             0.0000000000
      2366       762  TIP3      OH2            29.8607564810       35.7197967438        8.5887618360  SOLV      779             0.0000000000
      2367       762  TIP3      H1             30.4803964810       35.0432667438        8.3156818360  SOLV      779             0.0000000000
      2368       762  TIP3      H2             29.6524964810       35.5018767438        9.4972518360  SOLV      779             0.0000000000
      2369       763  TIP3      OH2            27.4326264810       30.1087267438       10.4813118360  SOLV      780             0.0000000000
      2370       763  TIP3      H1             27.7364164810       29.4228667438        9.8867218360  SOLV      780             0.0000000000
      2371       763  TIP3      H2             28.1540264810       30.2275967438       11.0991118360  SOLV      780             0.0000000000
      2372       764  TIP3      OH2            36.0956064810       21.7102567438       11.3419318360  SOLV      781             0.0000000000
      2373       764  TIP3      H1             36.1448264810       22.3203767438       12.0778418360  SOLV      781             0.0000000000
      2374       764  TIP3      H2             36.5211164810       22.1713467438       10.6190418360  SOLV      781             0.0000000000
      2375       765  TIP3      OH2            30.5733264810       24.5029667438       10.8087918360  SOLV      782             0.0000000000
      2376       765  TIP3      H1             30.7159164810       23.5566667438       10.8289518360  SOLV      782             0.0000000000
      2377       765  TIP3      H2             30.4672264810       24.7099467438        9.8802818360  SOLV      782             0.0000000000
      2378       766  TIP3      OH2            23.7281564810       22.6046067438        8.0812718360  SOLV      783             0.0000000000
      2379       766  TIP3      H1             23.7712664810       23.4644567438        7.6629018360  SOLV      783             0.0000000000
      2380       766  TIP3      H2             23.2705664810       22.0520767438        7.4475918360  SOLV      783             0.0000000000
      2381       767  TIP3      OH2            31.4504264810       22.7351667438        6.4821018360  SOLV      784             0.0000000000
      2382       767  TIP3      H1             32.0968564810       22.4064867438        7.1068618360  SOLV      784             0.0000000000
      2383       767  TIP3      H2             31.9603664810       23.2530667438        5.8592418360  SOLV      784             0.0000000000
      2384       768  TIP3      OH2            20.3483064810       25.0011867438        8.8434118360  SOLV      785             0.0000000000
      2385       768  TIP3      H1             21.0019664810       24.4513567438        9.2754218360  SOLV      785             0.0000000000
      2386       768  TIP3      H2             20.3722364810       24.7270867438        7.9266118360  SOLV      785             0.0000000000
      2387       769  TIP3      OH2            25.5047564810       26.5513167438        8.0585618360  SOLV      786             0.0000000000
      2388       769  TIP3      H1             26.1208564810       26.0248567438        8.5679618360  SOLV      786             0.0000000000
      2389       769  TIP3      H2             24.9186364810       25.9111867438        7.6549218360  SOLV      786             0.0000000000
      2390       770  TIP3      OH2            36.4870664810       23.1881767438       13.5779118360  SOLV      787             0.0000000000
      2391       770  TIP3      H1             35.7985264810       23.8462467438       13.4825718360  SOLV      787             0.0000000000
      2392       770  TIP3      H2             36.5025264810       22.9909667438       14.5144518360  SOLV      787             0.0000000000
      2393       771  TIP3      OH2            22.5383464810       21.5224467438       12.1553518360  SOLV      788             0.0000000000
      2394       771  TIP3      H1             22.3195164810       22.0525067438       11.3889518360  SOLV      788             0.0000000000
      2395       771  TIP3      H2             21.8704364810       21.7489967438       12.8024918360  SOLV      788             0.0000000000
      2396       772  TIP3      OH2            29.9073264810       31.0225567438        5.6992618360  SOLV      789             0.0000000000
      2397       772  TIP3      H1             29.6118364810       30.6997867438        4.8479518360  SOLV      789             0.0000000000
      2398       772  TIP3      H2             29.5831064810       31.9222267438        5.7405218360  SOLV      789             0.0000000000
      2399       773  TIP3      OH2            25.1074864810       29.1980167438       12.4427218360  SOLV      790             0.0000000000
      2400       773  TIP3      H1             24.3673964810       29.7961667438       12.5462418360  SOLV      790             0.0000000000
      2401       773  TIP3      H2             25.8214364810       29.7519767438       12.1270818360  SOLV      790             0.0000000000
      2402       774  TIP3      OH2            33.2142664810       22.0260967438        8.4626918360  SOLV      791             0.0000000000
      2403       774  TIP3      H1             32.9990664810       21.2604367438        8.9952918360  SOLV      791             0.0000000000
      2404       774  TIP3      H2             33.8700064810       22.4985567438        8.9755418360  SOLV      791             0.0000000000
      2405       775  TIP3      OH2            22.1320764810       23.4146267438       10.1075718360  SOLV      792             0.0000000000
      2406       775  TIP3      H1             22.7457064810       24.0473867438       10.4808118360  SOLV      792             0.0000000000
      2407       775  TIP3      H2             22.6441464810       22.9421267438        9.4512618360  SOLV      792             0.0000000000
      2408       776  TIP3      OH2            23.5149164810       31.1623167438       13.2298718360  SOLV      793             0.0000000000
      2409       776  TIP3      H1             23.5096764810       32.0416667438       12.8518018360  SOLV      793             0.0000000000
      2410       776  TIP3      H2             22.6613264810       31.0787267438       13.6548618360  SOLV      793             0.0000000000
      2411       777  TIP3      OH2            19.6360064810       30.8331067438        4.0118018360  SOLV      794             0.0000000000
      2412       777  TIP3      H1             19.3640964810       31.0622067438        3.1230918360  SOLV      794             0.0000000000
      2413       777  TIP3      H2             19.6815764810       31.6709867438        4.4723318360  SOLV      794             0.0000000000
      2414       778  TIP3      OH2            33.2609764810       32.4546967438       10.7246518360  SOLV      795             0.0000000000
      2415       778  TIP3      H1             32.3193464810       32.5130867438       10.8863418360  SOLV      795             0.0000000000
      2416       778  TIP3      H2             33.5375864810       33.3607467438       10.5876218360  SOLV      795             0.0000000000
      2417       779  TIP3      OH2            33.5616764810       20.7412267438       12.1420418360  SOLV      796             0.0000000000
      2418       779  TIP3      H1             32.8255964810       21.3519367438       12.1041718360  SOLV      796             0.0000000000
      2419       779  TIP3      H2             34.2450764810       21.1561267438       11.6156818360  SOLV      796             0.0000000000
      2420       780  TIP3      OH2            26.5648164810       18.8279567438        9.6078418360  SOLV      797             0.0000000000
      2421       780  TIP3      H1             26.4472364810       17.8795567438        9.5536718360  SOLV      797             0.0000000000
      2422       780  TIP3      H2             25.7098264810       19.1605667438        9.8809518360  SOLV      797             0.0000000000
      2423       781  TIP3      OH2            31.5130964810       34.2360467438        7.3498118360  SOLV      798             0.0000000000
      2424       781  TIP3      H1             31.9383264810       33.5288367438        6.8647718360  SOLV      798             0.0000000000
      2425       781  TIP3      H2             31.8300964810       35.0373167438        6.9330318360  SOLV      798             0.0000000000
      2426       782  TIP3      OH2            32.6727464810       32.1368967438        5.8584718360  SOLV      799             0.0000000000
      2427       782  TIP3      H1             32.4152264810       31.4469067438        5.2470618360  SOLV      799             0.0000000000
      2428       782  TIP3      H2             32.7438264810       31.6940167438        6.7040618360  SOLV      799             0.0000000000
      2429       783  TIP3      OH2            34.3587664810       30.7035667438       14.3358218360  SOLV      800             0.0000000000
      2430       783  TIP3      H1             34.4983964810       30.1118167438       13.5965218360  SOLV      800             0.0000000000
      2431       783  TIP3      H2             34.5260464810       31.5761567438       13.9797018360  SOLV      800             0.0000000000
      2432       784  TIP3      OH2            28.8313064810       27.6655167438        4.1084218360  SOLV      801             0.0000000000
      2433       784  TIP3      H1             28.1198564810       28.2004867438        3.7564718360  SOLV      801             0.0000000000
      2434       784  TIP3      H2             29.5222664810       27.7207267438        3.4483118360  SOLV      801             0.0000000000
      2435       785  TIP3      OH2            28.8852264810       26.1229467438        1.1469218360  SOLV      802             0.0000000000
      2436       785  TIP3      H1             29.5862164810       26.1456367438        1.7983218360  SOLV      802             0.0000000000
      2437       785  TIP3      H2             29.1875164810       25.4949167438        0.4908518360  SOLV      802             0.0000000000
      2438       786  TIP3      OH2            36.2006964810       27.0433667438       12.4018618360  SOLV      803             0.0000000000
      2439       786  TIP3      H1             35.5481064810       27.7379267438       12.4909518360  SOLV      803             0.0000000000
      2440       786  TIP3      H2             36.6657264810       27.2534567438       11.5920218360  SOLV      803             0.0000000000
      2441       787  TIP3      OH2            32.2370764810       27.8748467438        5.0600118360  SOLV      804             0.0000000000
      2442       787  TIP3      H1             31.5051764810       28.1032167438        5.6330718360  SOLV      804             0.0000000000
      2443       787  TIP3      H2             32.6842964810       27.1611167438        5.5147618360  SOLV      804             0.0000000000
      2444       788  TIP3      OH2            32.1344264810       26.0491067438       14.1277118360  SOLV      805             0.0000000000
      2445       788  TIP3      H1             32.2143364810       26.8125467438       14.6995618360  SOLV      805             0.0000000000
      2446       788  TIP3      H2             31.5331964810       26.3283467438       13.4372218360  SOLV      805             0.0000000000
      2447       789  TIP3      OH2            23.8824464810       28.5054667438        6.9425118360  SOLV      806             0.0000000000
      2448       789  TIP3      H1             23.5519664810       28.1348067438        6.1242118360  SOLV      806             0.0000000000
      2449       789  TIP3      H2             24.4708564810       27.8348667438        7.2893418360  SOLV      806             0.0000000000
      2450       790  TIP3      OH2            25.2491964810       31.9335267438        9.6237318360  SOLV      807             0.0000000000
      2451       790  TIP3      H1             25.1543264810       31.3548367438        8.8671918360  SOLV      807             0.0000000000
      2452       790  TIP3      H2             25.9785564810       31.5620967438       10.1200118360  SOLV      807             0.0000000000
      2453       791  TIP3      OH2            24.2489964810       27.2740267438       10.5760118360  SOLV      808             0.0000000000
      2454       791  TIP3      H1             24.8142464810       27.3954467438        9.8131318360  SOLV      808             0.0000000000
      2455       791  TIP3      H2             24.5678864810       27.9115267438       11.2148618360  SOLV      808             0.0000000000
      2456       792  TIP3      OH2            30.5582164810       32.7772167438       11.3100618360  SOLV      809             0.0000000000
      2457       792  TIP3      H1             30.3178764810       33.4395267438       11.9579818360  SOLV      809             0.0000000000
      2458       792  TIP3      H2             30.3600364810       31.9427367438       11.7350218360  SOLV      809             0.0000000000
      2459       793  TIP3      OH2            25.1290664810       31.6732967438       15.2932018360  SOLV      810             0.0000000000
      2460       793  TIP3      H1             24.8178164810       32.4556167438       15.7485218360  SOLV      810             0.0000000000
      2461       793  TIP3      H2             24.4790864810       31.5202067438       14.6074018360  SOLV      810             0.0000000000
      2462       794  TIP3      OH2            31.1080264810       27.0371367438        2.7451318360  SOLV      811             0.0000000000
      2463       794  TIP3      H1             31.6875764810       27.1871667438        3.4920218360  SOLV      811             0.0000000000
      2464       794  TIP3      H2             31.5220264810       27.5078767438        2.0217718360  SOLV      811             0.0000000000
      2465       795  TIP3      OH2            22.0490564810       27.8714067438       14.5217718360  SOLV      812             0.0000000000
      2466       795  TIP3      H1             22.1193764810       28.5220867438       15.2202718360  SOLV      812             0.0000000000
      2467       795  TIP3      H2             21.1582764810       27.9741567438       14.1868618360  SOLV      812             0.0000000000
      2468       796  TIP3      OH2            28.8345164810       33.7739867438        6.1804418360  SOLV      813             0.0000000000
      2469       796  TIP3      H1             29.3082764810       34.0696167438        6.9578618360  SOLV      813             0.0000000000
      2470       796  TIP3      H2             28.2714464810       34.5121467438        5.9474018360  SOLV      813             0.0000000000
      2471       797  TIP3      OH2            23.3686564810       33.7447967438       16.0565818360  SOLV      814             0.0000000000
      2472       797  TIP3      H1             23.3761864810       33.6087667438       15.1091318360  SOLV      814             0.0000000000
      2473       797  TIP3      H2             22.4526964810       33.6276067438       16.3085818360  SOLV      814             0.0000000000
      2474       798  TIP3      OH2            34.8068664810       18.7871767438        2.5581018360  SOLV      815             0.0000000000
      2475       798  TIP3      H1             33.9069364810       18.9260767438        2.8531618360  SOLV      815             0.0000000000
      2476       798  TIP3      H2             35.0587064810       19.6186367438        2.1562718360  SOLV      815             0.0000000000
      2477       799  TIP3      OH2            22.8727164810       27.5748967438        4.5317918360  SOLV      816             0.0000000000
      2478       799  TIP3      H1             22.5808464810       28.3430667438        4.0409218360  SOLV      816             0.0000000000
      2479       799  TIP3      H2             22.1982364810       26.9155167438        4.3689318360  SOLV      816             0.0000000000
      2480       800  TIP3      OH2            35.9960064810       33.1534167438        0.9344918360  SOLV      817             0.0000000000
      2481       800  TIP3      H1             36.0693564810       34.0924367438        1.1050218360  SOLV      817             0.0000000000
      2482       800  TIP3      H2             36.9015164810       32.8482767438        0.8782218360  SOLV      817             0.0000000000
      2483       801  TIP3      OH2            18.9657264810       29.9378167438       13.3467718360  SOLV      818             0.0000000000
      2484       801  TIP3      H1             18.4645664810       29.9097567438       12.5317418360  SOLV      818             0.0000000000
      2485       801  TIP3      H2             18.9710964810       29.0321367438       13.6565018360  SOLV      818             0.0000000000
      2486       802  TIP3      OH2            18.7159964810       32.7181967438       10.2307918360  SOLV      819             0.0000000000
      2487       802  TIP3      H1             19.6620564810       32.5738967438       10.2117418360  SOLV      819             0.0000000000
      2488       802  TIP3      H2             18.6036264810       33.5024767438       10.7679118360  SOLV      819             0.0000000000
      2489       803  TIP3      OH2            36.9138464810       33.3841667438       15.9131618360  SOLV      820             0.0000000000
      2490       803  TIP3      H1             36.8645264810       32.4289767438       15.8759218360  SOLV      820             0.0000000000
      2491       803  TIP3      H2             36.0870764810       33.6516967438       16.3145418360  SOLV      820             0.0000000000
      2492       804  TIP3      OH2            27.8922464810       32.9580867438       14.7893018360  SOLV      821             0.0000000000
      2493       804  TIP3      H1             27.9797064810       33.7845467438       15.2642118360  SOLV      821             0.0000000000
      2494       804  TIP3      H2             27.0287564810       32.6284667438       15.0382318360  SOLV      821             0.0000000000
      2495       805  TIP3      OH2            28.3068264810       36.7304567438        4.5953618360  SOLV      822             0.0000000000
      2496       805  TIP3      H1             28.2314264810       36.6091767438        3.6488818360  SOLV      822             0.0000000000
      2497       805  TIP3      H2             28.3396964810       37.6797267438        4.7138218360  SOLV      822             0.0000000000
      2498       806  TIP3      OH2            21.9602064810       35.5191567438        6.3762618360  SOLV      823             0.0000000000
      2499       806  TIP3      H1             22.1122464810       35.1711967438        7.2549118360  SOLV      823             0.0000000000
      2500       806  TIP3      H2             21.1092464810       35.1628867438        6.1209818360  SOLV      823             0.0000000000
      2501       807  TIP3      OH2            31.4084264810       35.8844767438        1.5976018360  SOLV      824             0.0000000000
      2502       807  TIP3      H1             31.7832664810       35.1400867438        1.1268618360  SOLV      824             0.0000000000
      2503       807  TIP3      H2             31.4127964810       35.6145367438        2.5159318360  SOLV      824             0.0000000000
      2504       808  TIP3      OH2            31.0772364810       35.8101867438        4.3468218360  SOLV      825             0.0000000000
      2505       808  TIP3      H1             30.1422164810       35.9103767438        4.5255218360  SOLV      825             0.0000000000
      2506       808  TIP3      H2             31.3574264810       35.1007867438        4.9251418360  SOLV      825             0.0000000000
      2507       809  TIP3      OH2            34.0658264810       24.8774167438       16.3933818360  SOLV      826             0.0000000000
      2508       809  TIP3      H1             33.6585064810       25.3579767438       15.6727118360  SOLV      826             0.0000000000
      2509       809  TIP3      H2             34.1063964810       23.9720167438       16.0854618360  SOLV      826             0.0000000000
      2510       810  TIP3      OH2            21.2147764810       31.2613567438       14.3900518360  SOLV      827             0.0000000000
      2511       810  TIP3      H1             21.4309064810       30.8999167438       15.2496318360  SOLV      827             0.0000000000
      2512       810  TIP3      H2             20.3592464810       30.8867367438       14.1804018360  SOLV      827             0.0000000000
      2513       811  TIP3      OH2            23.8335764810       19.7314067438       10.3854718360  SOLV      828             0.0000000000
      2514       811  TIP3      H1             22.9719464810       19.6442267438        9.9777618360  SOLV      828             0.0000000000
      2515       811  TIP3      H2             23.8111464810       20.5874167438       10.8132318360  SOLV      828             0.0000000000
      2516       812  TIP3      OH2            28.4963564810       19.4534467438       13.7601718360  SOLV      829             0.0000000000
      2517       812  TIP3      H1             28.9166664810       19.0381567438       14.5132318360  SOLV      829             0.0000000000
      2518       812  TIP3      H2             27.5633164810       19.2747767438       13.8773718360  SOLV      829             0.0000000000
      2519       813  TIP3      OH2            31.8228464810       23.2089667438       14.6136218360  SOLV      830             0.0000000000
      2520       813  TIP3      H1             31.3087964810       23.0831867438       15.4112218360  SOLV      830             0.0000000000
      2521       813  TIP3      H2             31.6673164810       24.1212767438       14.3692418360  SOLV      830             0.0000000000
      2522       814  TIP3      OH2            32.5853364810       28.0699667438        0.3749218360  SOLV      831             0.0000000000
      2523       814  TIP3      H1             32.6274164810       27.8473567438       -0.5550781640  SOLV      831             0.0000000000
      2524       814  TIP3      H2             33.4345464810       28.4686767438        0.5649118360  SOLV      831             0.0000000000
      2525       815  TIP3      OH2            28.1580864810       21.9457867438        1.0452518360  SOLV      832             0.0000000000
      2526       815  TIP3      H1             27.9045664810       21.9649467438        1.9680618360  SOLV      832             0.0000000000
      2527       815  TIP3      H2             27.9012964810       21.0743267438        0.7438718360  SOLV      832             0.0000000000
      2528       816  TIP3      OH2            23.9245864810       24.6968567438       11.4804918360  SOLV      833             0.0000000000
      2529       816  TIP3      H1             23.2827964810       24.6565867438       12.1895018360  SOLV      833             0.0000000000
      2530       816  TIP3      H2             23.9617864810       25.6233267438       11.2427918360  SOLV      833             0.0000000000
      2531       817  TIP3      OH2            23.9214964810       24.9178667438        6.3924918360  SOLV      834             0.0000000000
      2532       817  TIP3      H1             23.0287864810       24.5774767438        6.3338718360  SOLV      834             0.0000000000
      2533       817  TIP3      H2             24.3721564810       24.5409567438        5.6368118360  SOLV      834             0.0000000000
      2534       818  TIP3      OH2            29.4570464810       25.3338967438        5.2095718360  SOLV      835             0.0000000000
      2535       818  TIP3      H1             29.0480764810       26.1487567438        4.9180518360  SOLV      835             0.0000000000
      2536       818  TIP3      H2             30.1776664810       25.1939067438        4.5952818360  SOLV      835             0.0000000000
      2537       819  TIP3      OH2            28.5592064810       25.5095367438       16.6976418360  SOLV      836             0.0000000000
      2538       819  TIP3      H1             27.9965864810       24.8046967438       17.0184218360  SOLV      836             0.0000000000
      2539       819  TIP3      H2             29.3855464810       25.3887267438       17.1654018360  SOLV      836             0.0000000000
      2540       820  TIP3      OH2            30.4618164810       24.7799367438        8.0235418360  SOLV      837             0.0000000000
      2541       820  TIP3      H1             30.2662664810       25.3856167438        7.3086018360  SOLV      837             0.0000000000
      2542       820  TIP3      H2             30.6430764810       23.9464567438        7.5891718360  SOLV      837             0.0000000000
      2543       821  TIP3      OH2            21.6746364810       25.0172067438       13.3476918360  SOLV      838             0.0000000000
      2544       821  TIP3      H1             21.6365764810       25.4173667438       14.2164018360  SOLV      838             0.0000000000
      2545       821  TIP3      H2             21.1837464810       24.2004467438       13.4379818360  SOLV      838             0.0000000000
      2546       822  TIP3      OH2            25.0403764810       22.3914367438        0.1462918360  SOLV      839             0.0000000000
      2547       822  TIP3      H1             24.6094464810       21.9464467438        0.8760318360  SOLV      839             0.0000000000
      2548       822  TIP3      H2             24.3222464810       22.7630667438       -0.3659581640  SOLV      839             0.0000000000
      2549       823  TIP3      OH2            18.2827164810       22.1333867438        7.1981618360  SOLV      840             0.0000000000
      2550       823  TIP3      H1             18.9134864810       22.1045967438        7.9175518360  SOLV      840             0.0000000000
      2551       823  TIP3      H2             18.7321464810       21.7082567438        6.4677518360  SOLV      840             0.0000000000
      2552       824  TIP3      OH2            19.5569264810       22.8795867438        2.6222018360  SOLV      841             0.0000000000
      2553       824  TIP3      H1             20.0310964810       23.4705767438        2.0372918360  SOLV      841             0.0000000000
      2554       824  TIP3      H2             18.8395664810       23.4098767438        2.9692118360  SOLV      841             0.0000000000
      2555       825  TIP3      OH2            29.7257364810       26.4180667438       12.6947818360  SOLV      842             0.0000000000
      2556       825  TIP3      H1             30.0492164810       25.7870367438       12.0518318360  SOLV      842             0.0000000000
      2557       825  TIP3      H2             29.2856664810       25.8832867438       13.3555218360  SOLV      842             0.0000000000
      2558       826  TIP3      OH2            26.5030264810       22.3456167438        7.4789018360  SOLV      843             0.0000000000
      2559       826  TIP3      H1             25.5921364810       22.4022967438        7.7675018360  SOLV      843             0.0000000000
      2560       826  TIP3      H2             27.0083164810       22.2851667438        8.2896218360  SOLV      843             0.0000000000
      2561       827  TIP3      OH2            21.3313664810       23.9742467438        6.3056618360  SOLV      844             0.0000000000
      2562       827  TIP3      H1             20.4421664810       24.0737967438        5.9656218360  SOLV      844             0.0000000000
      2563       827  TIP3      H2             21.6278564810       23.1325467438        5.9594518360  SOLV      844             0.0000000000
      2564       828  TIP3      OH2            24.9845464810       23.9745067438        3.9621218360  SOLV      845             0.0000000000
      2565       828  TIP3      H1             25.9160964810       24.1035067438        4.1404318360  SOLV      845             0.0000000000
      2566       828  TIP3      H2             24.7695764810       24.6439367438        3.3125918360  SOLV      845             0.0000000000
      2567       829  TIP3      OH2            30.9082164810       21.5802467438       10.7430818360  SOLV      846             0.0000000000
      2568       829  TIP3      H1             30.2313764810       21.7115567438       11.4070518360  SOLV      846             0.0000000000
      2569       829  TIP3      H2             30.4227064810       21.4251967438        9.9328518360  SOLV      846             0.0000000000
      2570       830  TIP3      OH2            23.6585664810       25.1687267438        1.5287318360  SOLV      847             0.0000000000
      2571       830  TIP3      H1             23.1160764810       24.7891067438        0.8374918360  SOLV      847             0.0000000000
      2572       830  TIP3      H2             24.4920564810       25.3631967438        1.1001418360  SOLV      847             0.0000000000
      2573       831  TIP3      OH2            34.1957264810       37.2517867438       17.0198418360  SOLV      848             0.0000000000
      2574       831  TIP3      H1             34.3955964810       37.6759767438       16.1853718360  SOLV      848             0.0000000000
      2575       831  TIP3      H2             34.8510964810       37.5956067438       17.6268818360  SOLV      848             0.0000000000
      2576       832  TIP3      OH2            21.7937064810       29.7259167438       16.6278918360  SOLV      849             0.0000000000
      2577       832  TIP3      H1             22.5259464810       29.9805067438       17.1893418360  SOLV      849             0.0000000000
      2578       832  TIP3      H2             21.0135764810       29.9304567438       17.1434318360  SOLV      849             0.0000000000
      2579       833  TIP3      OH2            27.8229964810       25.1329167438        9.3658618360  SOLV      850             0.0000000000
      2580       833  TIP3      H1             28.3873364810       24.5865767438        8.8188218360  SOLV      850             0.0000000000
      2581       833  TIP3      H2             27.6753364810       24.6111067438       10.1546218360  SOLV      850             0.0000000000
      2582       834  TIP3      OH2            22.8249664810       21.2695267438        5.7843418360  SOLV      851             0.0000000000
      2583       834  TIP3      H1             22.5079164810       20.3670567438        5.7488818360  SOLV      851             0.0000000000
      2584       834  TIP3      H2             23.6063764810       21.2712667438        5.2315018360  SOLV      851             0.0000000000
      2585       835  TIP3      OH2            26.4495864810       23.5215267438       11.7799018360  SOLV      852             0.0000000000
      2586       835  TIP3      H1             25.6141164810       23.9754767438       11.8901418360  SOLV      852             0.0000000000
      2587       835  TIP3      H2             26.9736464810       23.7973767438       12.5318918360  SOLV      852             0.0000000000
      2588       836  TIP3      OH2            26.9938464810       29.7342967438        3.4645418360  SOLV      853             0.0000000000
      2589       836  TIP3      H1             26.2489464810       29.2268267438        3.1423318360  SOLV      853             0.0000000000
      2590       836  TIP3      H2             26.8595664810       29.7830967438        4.4110218360  SOLV      853             0.0000000000
      2591       837  TIP3      OH2            34.1437364810       28.8671167438       12.2513018360  SOLV      854             0.0000000000
      2592       837  TIP3      H1             34.7856164810       29.3237467438       11.7075218360  SOLV      854             0.0000000000
      2593       837  TIP3      H2             33.3134264810       28.9803567438       11.7887118360  SOLV      854             0.0000000000
      2594       838  TIP3      OH2            30.8915264810       22.5482867438        1.6638018360  SOLV      855             0.0000000000
      2595       838  TIP3      H1             29.9529464810       22.6598467438        1.5126818360  SOLV      855             0.0000000000
      2596       838  TIP3      H2             31.1887364810       23.4049767438        1.9703718360  SOLV      855             0.0000000000
      2597       839  TIP3      OH2            28.5130564810       29.9186267438       14.7014518360  SOLV      856             0.0000000000
      2598       839  TIP3      H1             28.1676664810       29.5368667438       15.5084118360  SOLV      856             0.0000000000
      2599       839  TIP3      H2             28.3130664810       30.8519867438       14.7727418360  SOLV      856             0.0000000000
      2600       840  TIP3      OH2            31.6098764810       24.4155567438        3.3245418360  SOLV      857             0.0000000000
      2601       840  TIP3      H1             32.5017764810       24.2780567438        3.6436618360  SOLV      857             0.0000000000
      2602       840  TIP3      H2             31.6662364810       25.2061667438        2.7878918360  SOLV      857             0.0000000000
      2603       841  TIP3      OH2            22.1186764810       29.0292967438        9.2343318360  SOLV      858             0.0000000000
      2604       841  TIP3      H1             22.8633964810       29.0268667438        8.6329818360  SOLV      858             0.0000000000
      2605       841  TIP3      H2             22.1963364810       28.2056767438        9.7158418360  SOLV      858             0.0000000000
      2606       842  TIP3      OH2            29.1192564810       31.1927267438        2.4900018360  SOLV      859             0.0000000000
      2607       842  TIP3      H1             28.8240964810       32.0195167438        2.8714818360  SOLV      859             0.0000000000
      2608       842  TIP3      H2             28.4162564810       30.5734167438        2.6861418360  SOLV      859             0.0000000000
      2609       843  TIP3      OH2            19.1266464810       27.4899867438       14.5491818360  SOLV      860             0.0000000000
      2610       843  TIP3      H1             19.3495064810       27.0719467438       15.3809318360  SOLV      860             0.0000000000
      2611       843  TIP3      H2             18.5246564810       26.8774867438       14.1264618360  SOLV      860             0.0000000000
      2612       844  TIP3      OH2            26.1431364810       27.0069767438       16.7621518360  SOLV      861             0.0000000000
      2613       844  TIP3      H1             25.8472164810       26.8412767438       15.8670618360  SOLV      861             0.0000000000
      2614       844  TIP3      H2             27.0746564810       26.7870067438       16.7515418360  SOLV      861             0.0000000000
      2615       845  TIP3      OH2            30.7634164810       32.3801767438       14.6519518360  SOLV      862             0.0000000000
      2616       845  TIP3      H1             29.8628464810       32.5634367438       14.3843418360  SOLV      862             0.0000000000
      2617       845  TIP3      H2             30.7975264810       32.6391067438       15.5728318360  SOLV      862             0.0000000000
      2618       846  TIP3      OH2            36.4947464810       24.6249667438        3.0192118360  SOLV      863             0.0000000000
      2619       846  TIP3      H1             35.9403764810       24.2287667438        2.3469618360  SOLV      863             0.0000000000
      2620       846  TIP3      H2             36.5951064810       25.5354867438        2.7415418360  SOLV      863             0.0000000000
      2621       847  TIP3      OH2            36.4579464810       30.4251367438       15.8563618360  SOLV      864             0.0000000000
      2622       847  TIP3      H1             35.6067964810       30.6635167438       15.4890018360  SOLV      864             0.0000000000
      2623       847  TIP3      H2             37.0482864810       30.4084567438       15.1030718360  SOLV      864             0.0000000000
      2624       848  TIP3      OH2            34.7899164810       33.4110067438        3.4844218360  SOLV      865             0.0000000000
      2625       848  TIP3      H1             34.4170264810       32.5853867438        3.7934818360  SOLV      865             0.0000000000
      2626       848  TIP3      H2             35.0672664810       33.2279467438        2.5867618360  SOLV      865             0.0000000000
      2627       849  TIP3      OH2            31.9503064810       28.2189567438       10.5056118360  SOLV      866             0.0000000000
      2628       849  TIP3      H1             31.0219964810       27.9871467438       10.4785418360  SOLV      866             0.0000000000
      2629       849  TIP3      H2             32.4014164810       27.4419367438       10.1754918360  SOLV      866             0.0000000000
      2630       850  TIP3      OH2            24.4936164810       32.5471167438        6.6384818360  SOLV      867             0.0000000000
      2631       850  TIP3      H1             25.0208364810       33.3205567438        6.4383618360  SOLV      867             0.0000000000
      2632       850  TIP3      H2             23.6134664810       32.7720367438        6.3368818360  SOLV      867             0.0000000000
      2633       851  TIP3      OH2            20.2483864810       27.4095267438        1.2257218360  SOLV      868             0.0000000000
      2634       851  TIP3      H1             20.8643764810       28.0362467438        1.6052018360  SOLV      868             0.0000000000
      2635       851  TIP3      H2             19.3866464810       27.7255067438        1.4973718360  SOLV      868             0.0000000000
      2636       852  TIP3      OH2            25.9208464810       30.2101067438        6.2149118360  SOLV      869             0.0000000000
      2637       852  TIP3      H1             25.6798464810       31.1355467438        6.2564418360  SOLV      869             0.0000000000
      2638       852  TIP3      H2             25.1802064810       29.7512367438        6.6113018360  SOLV      869             0.0000000000
      2639       853  TIP3      OH2            26.4355064810       34.3594667438       12.5300218360  SOLV      870             0.0000000000
      2640       853  TIP3      H1             26.7979764810       35.2140267438       12.2964618360  SOLV      870             0.0000000000
      2641       853  TIP3      H2             26.9670264810       34.0676267438       13.2706518360  SOLV      870             0.0000000000
      2642       854  TIP3      OH2            24.6039264810       35.2318667438        5.7601318360  SOLV      871             0.0000000000
      2643       854  TIP3      H1             23.6539764810       35.3376067438        5.8114618360  SOLV      871             0.0000000000
      2644       854  TIP3      H2             24.9557364810       36.0526067438        6.1048818360  SOLV      871             0.0000000000
      2645       855  TIP3      OH2            29.9795864810       30.4585367438       12.2305818360  SOLV      872             0.0000000000
      2646       855  TIP3      H1             29.5537164810       30.2307067438       13.0569818360  SOLV      872             0.0000000000
      2647       855  TIP3      H2             30.5601664810       29.7197167438       12.0481118360  SOLV      872             0.0000000000
      2648       856  TIP3      OH2            32.1824764810       31.3875867438        1.3044818360  SOLV      873             0.0000000000
      2649       856  TIP3      H1             32.5357864810       31.0075667438        2.1088318360  SOLV      873             0.0000000000
      2650       856  TIP3      H2             31.2338264810       31.2940667438        1.3914118360  SOLV      873             0.0000000000
      2651       857  TIP3      OH2            32.6380064810       35.0104867438       14.7000618360  SOLV      874             0.0000000000
      2652       857  TIP3      H1             32.0363264810       34.4547767438       14.2046918360  SOLV      874             0.0000000000
      2653       857  TIP3      H2             32.9193764810       35.6774667438       14.0738018360  SOLV      874             0.0000000000
      2654       858  TIP3      OH2            36.6859164810       35.8668367438        1.5055018360  SOLV      875             0.0000000000
      2655       858  TIP3      H1             37.4297064810       36.4528867438        1.3656618360  SOLV      875             0.0000000000
      2656       858  TIP3      H2             35.9917264810       36.4354167438        1.8387418360  SOLV      875             0.0000000000
      2657       859  TIP3      OH2            20.7605964810       22.2432567438       14.1073218360  SOLV      876             0.0000000000
      2658       859  TIP3      H1             19.8678264810       22.5817967438       14.0397218360  SOLV      876             0.0000000000
      2659       859  TIP3      H2             20.6618764810       21.3878667438       14.5254018360  SOLV      876             0.0000000000
      2660       860  TIP3      OH2            33.0484064810       30.0597867438        3.5312718360  SOLV      877             0.0000000000
      2661       860  TIP3      H1             32.7711664810       29.3317167438        4.0873818360  SOLV      877             0.0000000000
      2662       860  TIP3      H2             33.9757064810       30.1789867438        3.7365318360  SOLV      877             0.0000000000
      2663       861  TIP3      OH2            20.4117964810       34.0476967438       12.5422618360  SOLV      878             0.0000000000
      2664       861  TIP3      H1             20.6288264810       33.1159367438       12.5112318360  SOLV      878             0.0000000000
      2665       861  TIP3      H2             20.6581464810       34.3221967438       13.4255418360  SOLV      878             0.0000000000
      2666       862  TIP3      OH2            25.2103164810       32.0695767438        2.2077418360  SOLV      879             0.0000000000
      2667       862  TIP3      H1             25.3571164810       31.5495567438        2.9978318360  SOLV      879             0.0000000000
      2668       862  TIP3      H2             25.2074864810       32.9763367438        2.5143318360  SOLV      879             0.0000000000
      2669       863  TIP3      OH2            21.6634264810       29.3219067438        2.7182818360  SOLV      880             0.0000000000
      2670       863  TIP3      H1             20.9773564810       29.6741567438        3.2852518360  SOLV      880             0.0000000000
      2671       863  TIP3      H2             22.1862164810       30.0848667438        2.4717118360  SOLV      880             0.0000000000
      2672       864  TIP3      OH2            29.4949364810       21.9842867438       12.9971818360  SOLV      881             0.0000000000
      2673       864  TIP3      H1             30.1937264810       22.0581567438       13.6471518360  SOLV      881             0.0000000000
      2674       864  TIP3      H2             29.1140764810       21.1197867438       13.1514718360  SOLV      881             0.0000000000
      2675       865  TIP3      OH2            30.2794264810       21.6364567438        4.0944118360  SOLV      882             0.0000000000
      2676       865  TIP3      H1             30.4992564810       22.1079967438        3.2909518360  SOLV      882             0.0000000000
      2677       865  TIP3      H2             30.8378264810       22.0307167438        4.7644718360  SOLV      882             0.0000000000
      2678       866  TIP3      OH2            27.9480364810       33.7669367438        2.9571618360  SOLV      883             0.0000000000
      2679       866  TIP3      H1             27.1316464810       34.2639067438        3.0095918360  SOLV      883             0.0000000000
      2680       866  TIP3      H2             28.4776664810       34.2422867438        2.3170418360  SOLV      883             0.0000000000
      2681       867  TIP3      OH2            27.4794164810       23.3643367438        4.9292518360  SOLV      884             0.0000000000
      2682       867  TIP3      H1             28.2916764810       23.8686567438        4.9754218360  SOLV      884             0.0000000000
      2683       867  TIP3      H2             27.2347164810       23.2193067438        5.8432118360  SOLV      884             0.0000000000
      2684       868  TIP3      OH2            28.0150564810       24.3506067438       14.1139118360  SOLV      885             0.0000000000
      2685       868  TIP3      H1             28.1340864810       24.9241467438       14.8709518360  SOLV      885             0.0000000000
      2686       868  TIP3      H2             28.6705164810       23.6625467438       14.2286918360  SOLV      885             0.0000000000
      2687       869  TIP3      OH2            28.3630864810       20.4456367438        5.8673618360  SOLV      886             0.0000000000
      2688       869  TIP3      H1             28.0164364810       21.0626967438        6.5117918360  SOLV      886             0.0000000000
      2689       869  TIP3      H2             29.0217764810       20.9462067438        5.3859118360  SOLV      886             0.0000000000
      2690       870  TIP3      OH2            25.2863464810       34.8106567438        2.9388518360  SOLV      887             0.0000000000
      2691       870  TIP3      H1             25.4472164810       35.6104067438        2.4381118360  SOLV      887             0.0000000000
      2692       870  TIP3      H2             25.0891264810       35.1172567438        3.8239118360  SOLV      887             0.0000000000
      2693       871  TIP3      OH2            24.0207864810       21.5085767438        2.5546118360  SOLV      888             0.0000000000
      2694       871  TIP3      H1             23.9372664810       22.3968867438        2.9012518360  SOLV      888             0.0000000000
      2695       871  TIP3      H2             24.9108164810       21.2432467438        2.7862918360  SOLV      888             0.0000000000
      2696       872  TIP3      OH2            34.2196364810       22.2576367438       14.9488818360  SOLV      889             0.0000000000
      2697       872  TIP3      H1             33.3032164810       22.5198067438       14.8612518360  SOLV      889             0.0000000000
      2698       872  TIP3      H2             34.5551364810       22.2545367438       14.0524118360  SOLV      889             0.0000000000
      2699       873  TIP3      OH2            32.8217364810       26.0077367438        9.0446118360  SOLV      890             0.0000000000
      2700       873  TIP3      H1             32.0241764810       25.5927567438        8.7161118360  SOLV      890             0.0000000000
      2701       873  TIP3      H2             33.2668464810       25.3171067438        9.5356618360  SOLV      890             0.0000000000
      2702       874  TIP3      OH2            22.2793164810       31.9357967438        1.6150618360  SOLV      891             0.0000000000
      2703       874  TIP3      H1             22.8714664810       32.6352767438        1.8913018360  SOLV      891             0.0000000000
      2704       874  TIP3      H2             22.7386164810       31.5027467438        0.8955218360  SOLV      891             0.0000000000
      2705       875  TIP3      OH2            20.5952364810       24.6000967438        0.7310018360  SOLV      892             0.0000000000
      2706       875  TIP3      H1             20.5504964810       25.5394067438        0.9097018360  SOLV      892             0.0000000000
      2707       875  TIP3      H2             19.7075564810       24.3645867438        0.4612118360  SOLV      892             0.0000000000
      2708       876  TIP3      OH2            33.9081964810       35.2639867438       10.6669618360  SOLV      893             0.0000000000
      2709       876  TIP3      H1             33.7526264810       35.9424267438       10.0098918360  SOLV      893             0.0000000000
      2710       876  TIP3      H2             34.8408364810       35.3359167438       10.8700218360  SOLV      893             0.0000000000
      2711       877  TIP3      OH2            21.4034364810       19.3817567438        9.4041018360  SOLV      894             0.0000000000
      2712       877  TIP3      H1             21.1744164810       19.4410067438        8.4766018360  SOLV      894             0.0000000000
      2713       877  TIP3      H2             20.9607764810       18.5903067438        9.7105118360  SOLV      894             0.0000000000
      2714       878  TIP3      OH2            20.3337664810       33.3224667438        5.5646818360  SOLV      895             0.0000000000
      2715       878  TIP3      H1             19.5016264810       33.7947367438        5.5918218360  SOLV      895             0.0000000000
      2716       878  TIP3      H2             20.8795964810       33.8322267438        4.9659918360  SOLV      895             0.0000000000
      2717       879  TIP3      OH2            19.6221364810       35.9348367438       16.8944818360  SOLV      896             0.0000000000
      2718       879  TIP3      H1             20.1623564810       35.7182367438       17.6544018360  SOLV      896             0.0000000000
      2719       879  TIP3      H2             19.1409364810       35.1294367438       16.7047318360  SOLV      896             0.0000000000
      2720       880  TIP3      OH2            24.2194764810       34.8542767438       18.5149018360  SOLV      897             0.0000000000
      2721       880  TIP3      H1             24.9871964810       34.3953567438       18.8558218360  SOLV      897             0.0000000000
      2722       880  TIP3      H2             24.1980964810       34.6282567438       17.5850218360  SOLV      897             0.0000000000
      2723       881  TIP3      OH2            30.7963464810       33.2343867438       17.2440518360  SOLV      898             0.0000000000
      2724       881  TIP3      H1             30.4452964810       32.3776867438       17.4870918360  SOLV      898             0.0000000000
      2725       881  TIP3      H2             31.5226664810       33.3770567438       17.8509518360  SOLV      898             0.0000000000
      2726       882  TIP3      OH2            32.9157264810       34.1793267438        0.1238818360  SOLV      899             0.0000000000
      2727       882  TIP3      H1             33.1987664810       33.3848467438        0.5765718360  SOLV      899             0.0000000000
      2728       882  TIP3      H2             33.6555164810       34.4124267438       -0.4370081640  SOLV      899             0.0000000000
      2729       883  TIP3      OH2            19.5290864810       29.7452467438       17.8489118360  SOLV      900             0.0000000000
      2730       883  TIP3      H1             19.6731364810       28.8433167438       17.5625818360  SOLV      900             0.0000000000
      2731       883  TIP3      H2             18.7568264810       30.0314567438       17.3611418360  SOLV      900             0.0000000000
      2732       884  TIP3      OH2            26.1846964810       29.7150567438       17.2815518360  SOLV      901             0.0000000000
      2733       884  TIP3      H1             25.8560764810       29.9858667438       16.4242918360  SOLV      901             0.0000000000
      2734       884  TIP3      H2             26.3365164810       28.7740367438       17.1940518360  SOLV      901             0.0000000000
      2735       885  TIP3      OH2            29.2227964810       31.1359867438       -0.2828281640  SOLV      902             0.0000000000
      2736       885  TIP3      H1             28.9542064810       31.3161967438        0.6180618360  SOLV      902             0.0000000000
      2737       885  TIP3      H2             29.0163564810       30.2106067438       -0.4142481640  SOLV      902             0.0000000000
      2738       886  TIP3      OH2            31.9192164810       29.6307867438       14.6647818360  SOLV      903             0.0000000000
      2739       886  TIP3      H1             32.6646964810       30.2191567438       14.5451818360  SOLV      903             0.0000000000
      2740       886  TIP3      H2             31.1618964810       30.2127567438       14.7280918360  SOLV      903             0.0000000000
      2741       887  TIP3      OH2            20.3617364810       26.9455767438       17.2688418360  SOLV      904             0.0000000000
      2742       887  TIP3      H1             20.7698564810       26.0882367438       17.1479018360  SOLV      904             0.0000000000
      2743       887  TIP3      H2             20.1014964810       26.9597067438       18.1898718360  SOLV      904             0.0000000000
      2744       888  TIP3      OH2            25.0198364810       28.0614367438        2.2871718360  SOLV      905             0.0000000000
      2745       888  TIP3      H1             24.5600364810       27.5772667438        2.9730218360  SOLV      905             0.0000000000
      2746       888  TIP3      H2             25.2747064810       27.3929767438        1.6512218360  SOLV      905             0.0000000000
      2747       889  TIP3      OH2            24.3087664810       25.9541467438       14.6431318360  SOLV      906             0.0000000000
      2748       889  TIP3      H1             23.6903764810       26.6288067438       14.9236018360  SOLV      906             0.0000000000
      2749       889  TIP3      H2             24.6528864810       26.2755367438       13.8097518360  SOLV      906             0.0000000000
      2750       890  TIP3      OH2            26.0908764810       26.3046167438        0.5494918360  SOLV      907             0.0000000000
      2751       890  TIP3      H1             25.9103764810       26.1497367438       -0.3776781640  SOLV      907             0.0000000000
      2752       890  TIP3      H2             27.0409264810       26.4124867438        0.5942818360  SOLV      907             0.0000000000
      2753       891  TIP3      OH2            29.3285864810       28.4256767438       17.9206118360  SOLV      908             0.0000000000
      2754       891  TIP3      H1             30.2817064810       28.5095867438       17.8932118360  SOLV      908             0.0000000000
      2755       891  TIP3      H2             29.1680464810       27.7138567438       18.5401018360  SOLV      908             0.0000000000
      2756       892  TIP3      OH2            24.6481364810       23.3092267438       15.7254418360  SOLV      909             0.0000000000
      2757       892  TIP3      H1             24.7982264810       22.5803567438       15.1234118360  SOLV      909             0.0000000000
      2758       892  TIP3      H2             24.6503764810       24.0863967438       15.1666618360  SOLV      909             0.0000000000
      2759       893  TIP3      OH2            25.0607064810       21.6788067438       13.2181818360  SOLV      910             0.0000000000
      2760       893  TIP3      H1             25.5964564810       22.1304767438       12.5661118360  SOLV      910             0.0000000000
      2761       893  TIP3      H2             24.2086664810       21.5707867438       12.7955918360  SOLV      910             0.0000000000
      2762       894  TIP3      OH2            26.6425464810       27.1184267438       13.4577018360  SOLV      911             0.0000000000
      2763       894  TIP3      H1             27.3930264810       26.9621767438       12.8844818360  SOLV      911             0.0000000000
      2764       894  TIP3      H2             26.3033764810       27.9700867438       13.1822518360  SOLV      911             0.0000000000
      2765       895  TIP3      OH2            31.0581664810       24.9336067438       18.4862318360  SOLV      912             0.0000000000
      2766       895  TIP3      H1             31.2502964810       24.0025467438       18.3746818360  SOLV      912             0.0000000000
      2767       895  TIP3      H2             31.9157964810       25.3585567438       18.4757718360  SOLV      912             0.0000000000
      2768       896  TIP3      OH2            32.3748864810       27.7221267438       16.5635018360  SOLV      913             0.0000000000
      2769       896  TIP3      H1             32.0933864810       28.4315867438       15.9858818360  SOLV      913             0.0000000000
      2770       896  TIP3      H2             33.3173164810       27.6494267438       16.4126218360  SOLV      913             0.0000000000
      2771       897  TIP3      OH2            23.1267664810       24.5075767438       17.6370018360  SOLV      914             0.0000000000
      2772       897  TIP3      H1             22.3596664810       23.9750567438       17.4267618360  SOLV      914             0.0000000000
      2773       897  TIP3      H2             23.8056664810       24.1976167438       17.0376318360  SOLV      914             0.0000000000
      2774       898  TIP3      OH2            25.8662564810       19.1353767438       13.6495418360  SOLV      915             0.0000000000
      2775       898  TIP3      H1             25.7682164810       20.0816967438       13.5441618360  SOLV      915             0.0000000000
      2776       898  TIP3      H2             25.1238764810       18.7627567438       13.1738918360  SOLV      915             0.0000000000
      2777       899  TIP3      OH2            27.1303064810       23.4569167438       17.2133818360  SOLV      916             0.0000000000
      2778       899  TIP3      H1             26.8948464810       23.2375867438       18.1148718360  SOLV      916             0.0000000000
      2779       899  TIP3      H2             26.3469964810       23.2500367438       16.7036318360  SOLV      916             0.0000000000
      2780       900  TIP3      OH2            29.8459664810       22.5842667438       16.2887318360  SOLV      917             0.0000000000
      2781       900  TIP3      H1             28.8985064810       22.6162367438       16.4210618360  SOLV      917             0.0000000000
      2782       900  TIP3      H2             30.1586364810       21.9589767438       16.9425518360  SOLV      917             0.0000000000
      2783       901  TIP3      OH2            31.4801164810       21.2183767438       18.2939218360  SOLV      918             0.0000000000
      2784       901  TIP3      H1             31.3832964810       20.2661067438       18.2881118360  SOLV      918             0.0000000000
      2785       901  TIP3      H2             31.1584264810       21.4870567438       19.1544718360  SOLV      918             0.0000000000
      2786       902  TIP3      OH2            21.3070464810       22.4279567438       17.3414718360  SOLV      919             0.0000000000
      2787       902  TIP3      H1             21.5187864810       21.7215667438       16.7312218360  SOLV      919             0.0000000000
      2788       902  TIP3      H2             21.1957964810       21.9905567438       18.1855918360  SOLV      919             0.0000000000
      2789       903  TIP3      OH2            26.0880664810       18.4291167438       16.3208218360  SOLV      920             0.0000000000
      2790       903  TIP3      H1             26.7999064810       17.7893367438       16.3067318360  SOLV      920             0.0000000000
      2791       903  TIP3      H2             25.9871064810       18.6959467438       15.4071318360  SOLV      920             0.0000000000
      2792       904  TIP3      OH2            26.4418164810       20.1119567438       18.3744518360  SOLV      921             0.0000000000
      2793       904  TIP3      H1             26.3100364810       19.6363367438       17.5543018360  SOLV      921             0.0000000000
      2794       904  TIP3      H2             25.8425564810       20.8563167438       18.3191618360  SOLV      921             0.0000000000
      2795       905  TIP3      OH2            25.9880464810       36.9949867438        1.5508518360  SOLV      922             0.0000000000
      2796       905  TIP3      H1             26.9211164810       37.1528567438        1.6946918360  SOLV      922             0.0000000000
      2797       905  TIP3      H2             25.7239264810       37.6702867438        0.9260018360  SOLV      922             0.0000000000
      2798       906  TIP3      OH2            19.5565364810       31.6313667438        1.0336618360  SOLV      923             0.0000000000
      2799       906  TIP3      H1             20.4704564810       31.7102567438        1.3070518360  SOLV      923             0.0000000000
      2800       906  TIP3      H2             19.5638464810       30.9443267438        0.3672218360  SOLV      923             0.0000000000
      2801       907  TIP3      OH2            18.2055964810       37.0242167438        6.1110518360  SOLV      924             0.0000000000
      2802       907  TIP3      H1             17.5583064810       36.5623867438        5.5781718360  SOLV      924             0.0000000000
      2803       907  TIP3      H2             18.5600564810       36.3525467438        6.6936718360  SOLV      924             0.0000000000
      2804       908  TIP3      OH2            19.0755164810       35.1049167438        7.9156718360  SOLV      925             0.0000000000
      2805       908  TIP3      H1             18.7411964810       34.2246467438        8.0876918360  SOLV      925             0.0000000000
      2806       908  TIP3      H2             19.2977564810       35.4504167438        8.7802318360  SOLV      925             0.0000000000
      2807       909  TIP3      OH2            36.6239964810       35.9145567438       10.8961518360  SOLV      926             0.0000000000
      2808       909  TIP3      H1             36.6026664810       36.0993967438       11.8350918360  SOLV      926             0.0000000000
      2809       909  TIP3      H2             37.3146164810       36.4829567438       10.5552918360  SOLV      926             0.0000000000
      2810       910  TIP3      OH2            36.1872864810       35.4816667438       13.8180618360  SOLV      927             0.0000000000
      2811       910  TIP3      H1             35.7001564810       34.7460767438       13.4468018360  SOLV      927             0.0000000000
      2812       910  TIP3      H2             36.7365564810       35.0880567438       14.4960018360  SOLV      927             0.0000000000
      2813       911  TIP3      OH2            34.6380164810       31.2714767438       18.4560918360  SOLV      928             0.0000000000
      2814       911  TIP3      H1             33.7721264810       31.1664467438       18.8503218360  SOLV      928             0.0000000000
      2815       911  TIP3      H2             35.0146064810       32.0298067438       18.9025618360  SOLV      928             0.0000000000
      2816       912  TIP3      OH2            35.9389864810       29.5278467438        3.9703418360  SOLV      929             0.0000000000
      2817       912  TIP3      H1             36.7891264810       29.9489367438        4.0975018360  SOLV      929             0.0000000000
      2818       912  TIP3      H2             35.9444964810       28.7878567438        4.5774818360  SOLV      929             0.0000000000
      2819       913  TIP3      OH2            36.3335464810       27.5815867438        5.7939118360  SOLV      930             0.0000000000
      2820       913  TIP3      H1             35.6070064810       27.1018467438        6.1916718360  SOLV      930             0.0000000000
      2821       913  TIP3      H2             36.9148764810       27.7870567438        6.5260718360  SOLV      930             0.0000000000
      2822       914  TIP3      OH2            36.0926664810       30.3663367438       10.7416718360  SOLV      931             0.0000000000
      2823       914  TIP3      H1             36.9260864810       29.9883367438       10.4610318360  SOLV      931             0.0000000000
      2824       914  TIP3      H2             36.2046964810       31.3094567438       10.6225818360  SOLV      931             0.0000000000
      2825       915  TIP3      OH2            34.5788964810       33.2440867438       13.0485118360  SOLV      932             0.0000000000
      2826       915  TIP3      H1             33.9314264810       33.5692367438       13.6740318360  SOLV      932             0.0000000000
      2827       915  TIP3      H2             34.0612964810       32.8038567438       12.3743418360  SOLV      932             0.0000000000
      2828       916  TIP3      OH2            36.6018564810       27.4824367438        2.1850418360  SOLV      933             0.0000000000
      2829       916  TIP3      H1             36.0799664810       27.8388467438        1.4661318360  SOLV      933             0.0000000000
      2830       916  TIP3      H2             36.5687764810       28.1572167438        2.8631318360  SOLV      933             0.0000000000
      2831       917  TIP3      OH2            34.9507564810       24.7219967438        0.7357518360  SOLV      934             0.0000000000
      2832       917  TIP3      H1             35.0471964810       25.3886967438        0.0557218360  SOLV      934             0.0000000000
      2833       917  TIP3      H2             34.8107164810       23.9066267438        0.2543018360  SOLV      934             0.0000000000
      2834       918  TIP3      OH2            34.1202264810       26.1022367438        6.3567818360  SOLV      935             0.0000000000
      2835       918  TIP3      H1             33.9701064810       25.1570967438        6.3365618360  SOLV      935             0.0000000000
      2836       918  TIP3      H2             33.7666764810       26.3833767438        7.2006918360  SOLV      935             0.0000000000
      2837       919  TIP3      OH2            19.1554664810       28.1804567438       10.3671618360  SOLV      936             0.0000000000
      2838       919  TIP3      H1             19.3397564810       28.0986267438        9.4314518360  SOLV      936             0.0000000000
      2839       919  TIP3      H2             20.0047564810       28.0561567438       10.7908018360  SOLV      936             0.0000000000
      2840       920  TIP3      OH2            34.9765164810       28.0725667438       15.9956118360  SOLV      937             0.0000000000
      2841       920  TIP3      H1             35.5592464810       27.3377967438       16.1873318360  SOLV      937             0.0000000000
      2842       920  TIP3      H2             35.5404464810       28.8445967438       16.0421918360  SOLV      937             0.0000000000
      2843       921  TIP3      OH2            36.4732264810       25.9751467438       16.6801518360  SOLV      938             0.0000000000
      2844       921  TIP3      H1             35.6098964810       25.5963567438       16.5146218360  SOLV      938             0.0000000000
      2845       921  TIP3      H2             37.0775964810       25.2366267438       16.6057318360  SOLV      938             0.0000000000
      2846       922  TIP3      OH2            34.1981364810       22.1299767438       -0.1466981640  SOLV      939             0.0000000000
      2847       922  TIP3      H1             34.8087164810       21.7586567438        0.4901218360  SOLV      939             0.0000000000
      2848       922  TIP3      H2             33.3612864810       21.7086667438        0.0493018360  SOLV      939             0.0000000000
      2849       923  TIP3      OH2            33.8307064810       23.6848167438        4.8192918360  SOLV      940             0.0000000000
      2850       923  TIP3      H1             34.1104164810       22.7778567438        4.9434618360  SOLV      940             0.0000000000
      2851       923  TIP3      H2             34.5898764810       24.1189667438        4.4302118360  SOLV      940             0.0000000000
      2852       924  TIP3      OH2            34.4425364810       24.2665567438       10.2551818360  SOLV      941             0.0000000000
      2853       924  TIP3      H1             35.3753364810       24.4785467438       10.2207818360  SOLV      941             0.0000000000
      2854       924  TIP3      H2             34.2072864810       24.3677667438       11.1774818360  SOLV      941             0.0000000000
      2855       925  TIP3      OH2            34.4717264810       25.0030867438       13.0311218360  SOLV      942             0.0000000000
      2856       925  TIP3      H1             33.6288564810       25.2711267438       13.3971018360  SOLV      942             0.0000000000
      2857       925  TIP3      H2             34.9141564810       25.8252767438       12.8202318360  SOLV      942             0.0000000000
      2858       926  TIP3      OH2            18.7529464810       23.4509567438       16.5080418360  SOLV      943             0.0000000000
      2859       926  TIP3      H1             19.6724364810       23.3287867438       16.7443518360  SOLV      943             0.0000000000
      2860       926  TIP3      H2             18.3033964810       22.7009267438       16.8973918360  SOLV      943             0.0000000000
      2861       927  TIP3      OH2            36.7548864810       18.9831067438       18.3846218360  SOLV      944             0.0000000000
      2862       927  TIP3      H1             37.1045864810       18.3294567438       17.7790918360  SOLV      944             0.0000000000
      2863       927  TIP3      H2             36.9018364810       19.8205167438       17.9448818360  SOLV      944             0.0000000000
      2864       928  TIP3      OH2            34.4441864810       20.9477467438        4.8674918360  SOLV      945             0.0000000000
      2865       928  TIP3      H1             34.6266864810       20.4988967438        5.6929918360  SOLV      945             0.0000000000
      2866       928  TIP3      H2             33.8444764810       20.3631867438        4.4039518360  SOLV      945             0.0000000000
      2867       929  TIP3      OH2            19.9741964810       21.7631167438        9.3993318360  SOLV      946             0.0000000000
      2868       929  TIP3      H1             20.4193564810       20.9713667438        9.7013018360  SOLV      946             0.0000000000
      2869       929  TIP3      H2             20.4404964810       22.4796367438        9.8298918360  SOLV      946             0.0000000000
      2870       930  TIP3      OH2            18.2782264810       24.7624167438       10.4683518360  SOLV      947             0.0000000000
      2871       930  TIP3      H1             18.7702064810       24.5414667438        9.6775518360  SOLV      947             0.0000000000
      2872       930  TIP3      H2             18.6403164810       25.6027567438       10.7493018360  SOLV      947             0.0000000000
      2873       931  TIP3      OH2            36.2746064810       21.0925667438       16.7337518360  SOLV      948             0.0000000000
      2874       931  TIP3      H1             35.3571764810       21.3632767438       16.6981018360  SOLV      948             0.0000000000
      2875       931  TIP3      H2             36.3975464810       20.5574067438       15.9497218360  SOLV      948             0.0000000000
      2876       932  TIP3      OH2            36.3108064810       21.0155567438        1.3955218360  SOLV      949             0.0000000000
      2877       932  TIP3      H1             36.7230664810       20.2941267438        0.9203218360  SOLV      949             0.0000000000
      2878       932  TIP3      H2             36.9924564810       21.6850167438        1.4539518360  SOLV      949             0.0000000000
      2879       933  TIP3      OH2            18.5918764810       21.0203267438        4.5225918360  SOLV      950             0.0000000000
      2880       933  TIP3      H1             17.6667164810       21.2289867438        4.3931418360  SOLV      950             0.0000000000
      2881       933  TIP3      H2             19.0458664810       21.5044067438        3.8328218360  SOLV      950             0.0000000000
      2882       934  TIP3      OH2            33.3625964810       36.0044967438        6.4683318360  SOLV      951             0.0000000000
      2883       934  TIP3      H1             34.0148864810       35.6567067438        5.8602418360  SOLV      951             0.0000000000
      2884       934  TIP3      H2             33.8729764810       36.4928167438        7.1143018360  SOLV      951             0.0000000000
      2885       935  TIP3      OH2            18.5554164810       19.7582267438       12.8668418360  SOLV      952             0.0000000000
      2886       935  TIP3      H1             17.8904664810       19.5122567438       13.5099318360  SOLV      952             0.0000000000
      2887       935  TIP3      H2             18.1125464810       20.3802667438       12.2896418360  SOLV      952             0.0000000000
      2888       936  TIP3      OH2            20.7473464810       32.9336367438       17.0114218360  SOLV      953             0.0000000000
      2889       936  TIP3      H1             19.9265964810       33.1082867438       16.5508918360  SOLV      953             0.0000000000
      2890       936  TIP3      H2             20.4951264810       32.8601067438       17.9318618360  SOLV      953             0.0000000000
      2891       937  TIP3      OH2            23.7016364810       33.9077567438       13.2698218360  SOLV      954             0.0000000000
      2892       937  TIP3      H1             23.2767464810       34.7176067438       12.9872818360  SOLV      954             0.0000000000
      2893       937  TIP3      H2             24.6059164810       33.9931667438       12.9678018360  SOLV      954             0.0000000000
      2894       938  TIP3      OH2            28.0127764810       35.3067567438       16.2291918360  SOLV      955             0.0000000000
      2895       938  TIP3      H1             28.1975264810       34.9733667438       17.1072218360  SOLV      955             0.0000000000
      2896       938  TIP3      H2             28.8592264810       35.6166167438       15.9071118360  SOLV      955             0.0000000000
      2897       939  TIP3      OH2            30.3578164810       36.5926467438       15.4733318360  SOLV      956             0.0000000000
      2898       939  TIP3      H1             31.0347064810       35.9598767438       15.2332518360  SOLV      956             0.0000000000
      2899       939  TIP3      H2             30.6796964810       36.9936967438       16.2806618360  SOLV      956             0.0000000000
      2900       940  TIP3      OH2            35.2751964810       19.1821967438       14.5528318360  SOLV      957             0.0000000000
      2901       940  TIP3      H1             34.4625464810       19.5072267438       14.1653018360  SOLV      957             0.0000000000
      2902       940  TIP3      H2             35.5080464810       18.4220467438       14.0197418360  SOLV      957             0.0000000000
      2903       941  TIP3      OH2            21.1033064810       37.1641467438       13.3173518360  SOLV      958             0.0000000000
      2904       941  TIP3      H1             20.3829464810       37.6042467438       12.8661218360  SOLV      958             0.0000000000
      2905       941  TIP3      H2             20.7377064810       36.9136167438       14.1657518360  SOLV      958             0.0000000000
      2906       942  TIP3      OH2            23.5705664810       36.7645367438       12.3470718360  SOLV      959             0.0000000000
      2907       942  TIP3      H1             22.7057864810       36.8363867438       12.7510818360  SOLV      959             0.0000000000
      2908       942  TIP3      H2             23.5154664810       37.3112667438       11.5633218360  SOLV      959             0.0000000000
      2909       943  TIP3      OH2            28.2811264810       36.6524267438       11.5226718360  SOLV      960             0.0000000000
      2910       943  TIP3      H1             27.8245264810       37.1813967438       10.8685118360  SOLV      960             0.0000000000
      2911       943  TIP3      H2             28.4439264810       37.2555667438       12.2479018360  SOLV      960             0.0000000000
      2912       944  TIP3      OH2            30.6087564810       35.5303867438       12.4677018360  SOLV      961             0.0000000000
      2913       944  TIP3      H1             29.7041264810       35.6954067438       12.2019118360  SOLV      961             0.0000000000
      2914       944  TIP3      H2             31.0376164810       36.3836067438       12.4020418360  SOLV      961             0.0000000000
      2915       945  TIP3      OH2            33.2129464810       37.1002967438       12.7624818360  SOLV      962             0.0000000000
      2916       945  TIP3      H1             33.0311464810       38.0161867438       12.5519718360  SOLV      962             0.0000000000
      2917       945  TIP3      H2             33.3897264810       36.6900067438       11.9159418360  SOLV      962             0.0000000000
      2918       946  TIP3      OH2            20.5181164810       35.7873967438       10.2275318360  SOLV      963             0.0000000000
      2919       946  TIP3      H1             20.4997164810       35.3619067438       11.0847618360  SOLV      963             0.0000000000
      2920       946  TIP3      H2             21.3229064810       35.4688967438        9.8187518360  SOLV      963             0.0000000000
      2921       947  TIP3      OH2            22.6594264810       34.4972667438        8.8825218360  SOLV      964             0.0000000000
      2922       947  TIP3      H1             22.4404964810       33.5810067438        9.0521218360  SOLV      964             0.0000000000
      2923       947  TIP3      H2             23.4836464810       34.6373067438        9.3486618360  SOLV      964             0.0000000000
      2924       948  TIP3      OH2            25.1966764810       34.9671967438        9.7313218360  SOLV      965             0.0000000000
      2925       948  TIP3      H1             25.4092464810       34.0790967438        9.4444118360  SOLV      965             0.0000000000
      2926       948  TIP3      H2             25.2611864810       34.9329667438       10.6857218360  SOLV      965             0.0000000000
      2927       949  TIP3      OH2            28.7050464810       20.6312567438        8.8756518360  SOLV      966             0.0000000000
      2928       949  TIP3      H1             28.0307264810       20.0018167438        9.1312318360  SOLV      966             0.0000000000
      2929       949  TIP3      H2             29.2689664810       20.1471467438        8.2724418360  SOLV      966             0.0000000000
      2930       950  TIP3      OH2            33.8477664810       18.7386567438        8.9883618360  SOLV      967             0.0000000000
      2931       950  TIP3      H1             34.4515264810       19.2861967438        8.4864618360  SOLV      967             0.0000000000
      2932       950  TIP3      H2             32.9779664810       19.0576967438        8.7477718360  SOLV      967             0.0000000000
      2933       951  TIP3      OH2            35.5748064810       19.8775267438        7.3214518360  SOLV      968             0.0000000000
      2934       951  TIP3      H1             36.1865564810       19.3630967438        6.7948118360  SOLV      968             0.0000000000
      2935       951  TIP3      H2             35.9571464810       20.7547367438        7.3448918360  SOLV      968             0.0000000000
      2936       952  TIP3      OH2            21.0317964810       19.2652867438        6.6976418360  SOLV      969             0.0000000000
      2937       952  TIP3      H1             20.2547764810       19.0307767438        6.1902318360  SOLV      969             0.0000000000
      2938       952  TIP3      H2             21.5621564810       18.4684967438        6.7064418360  SOLV      969             0.0000000000
      2939       953  TIP3      OH2            19.8681364810       19.0630967438        2.5012518360  SOLV      970             0.0000000000
      2940       953  TIP3      H1             20.3072064810       19.6741467438        1.9096018360  SOLV      970             0.0000000000
      2941       953  TIP3      H2             19.2343764810       19.6015067438        2.9752518360  SOLV      970             0.0000000000
      2942       954  TIP3      OH2            25.6110564810       19.1919967438        6.5109518360  SOLV      971             0.0000000000
      2943       954  TIP3      H1             26.4853964810       19.5804267438        6.4813818360  SOLV      971             0.0000000000
      2944       954  TIP3      H2             25.4751364810       18.9767767438        7.4336718360  SOLV      971             0.0000000000
      2945       955  TIP3      OH2            31.1678964810       19.2219767438        8.1601218360  SOLV      972             0.0000000000
      2946       955  TIP3      H1             31.2440564810       19.3171367438        7.2107218360  SOLV      972             0.0000000000
      2947       955  TIP3      H2             30.8928164810       18.3142667438        8.2890318360  SOLV      972             0.0000000000
      2948       956  TIP3      OH2            32.5211564810       19.2477567438        3.8526218360  SOLV      973             0.0000000000
      2949       956  TIP3      H1             31.8182664810       19.8626767438        3.6427618360  SOLV      973             0.0000000000
      2950       956  TIP3      H2             32.0762964810       18.4104267438        3.9837118360  SOLV      973             0.0000000000
      2951       957  TIP3      OH2            19.7690864810       35.0113167438        3.3987618360  SOLV      974             0.0000000000
      2952       957  TIP3      H1             19.0840764810       34.9732067438        2.7312718360  SOLV      974             0.0000000000
      2953       957  TIP3      H2             19.7728064810       35.9240767438        3.6869718360  SOLV      974             0.0000000000
      2954       958  TIP3      OH2            21.7290464810       20.9792467438        0.9436618360  SOLV      975             0.0000000000
      2955       958  TIP3      H1             22.2203864810       20.3494867438        0.4162118360  SOLV      975             0.0000000000
      2956       958  TIP3      H2             22.3526764810       21.2751867438        1.6067818360  SOLV      975             0.0000000000
      2957       959  TIP3      OH2            26.7550564810       21.2723967438        3.4007118360  SOLV      976             0.0000000000
      2958       959  TIP3      H1             26.9331864810       20.6257167438        4.0835718360  SOLV      976             0.0000000000
      2959       959  TIP3      H2             26.7016764810       22.1061667438        3.8678218360  SOLV      976             0.0000000000
      2960       960  TIP3      OH2            28.6334364810       36.2208067438        1.7963818360  SOLV      977             0.0000000000
      2961       960  TIP3      H1             29.4994564810       36.5875467438        1.6182018360  SOLV      977             0.0000000000
      2962       960  TIP3      H2             28.3867164810       35.7816067438        0.9824618360  SOLV      977             0.0000000000
      2963       961  TIP3      OH2            35.3423964810       35.7838367438        4.4754918360  SOLV      978             0.0000000000
      2964       961  TIP3      H1             35.1481064810       35.0360467438        3.9104518360  SOLV      978             0.0000000000
      2965       961  TIP3      H2             35.3034064810       36.5418467438        3.8922818360  SOLV      978             0.0000000000
      2966       962  TIP3      OH2            20.9895964810       19.7794767438       16.2152618360  SOLV      979             0.0000000000
      2967       962  TIP3      H1             20.6234164810       19.0137367438       16.6577318360  SOLV      979             0.0000000000
      2968       962  TIP3      H2             21.9024464810       19.8084967438       16.5017718360  SOLV      979             0.0000000000
      2969       963  TIP3      OH2            22.9626764810       19.1299167438       17.7509718360  SOLV      980             0.0000000000
      2970       963  TIP3      H1             23.8610364810       18.8559367438       17.5663118360  SOLV      980             0.0000000000
      2971       963  TIP3      H2             22.5759864810       18.3875167438       18.2152318360  SOLV      980             0.0000000000
      2972       964  TIP3      OH2            21.5872064810       35.9313967438        0.4239718360  SOLV      981             0.0000000000
      2973       964  TIP3      H1             21.3196664810       36.2176867438        1.2972818360  SOLV      981             0.0000000000
      2974       964  TIP3      H2             22.3584664810       35.3853167438        0.5762218360  SOLV      981             0.0000000000
      2975       965  TIP3      OH2            31.3839064810       18.4624467438       17.9332518360  SOLV      982             0.0000000000
      2976       965  TIP3      H1             31.4606264810       18.0365167438       18.7870218360  SOLV      982             0.0000000000
      2977       965  TIP3      H2             32.2775664810       18.4759167438       17.5906018360  SOLV      982             0.0000000000
      2978       966  TIP3      OH2            34.5600164810       34.5350767438       16.6256718360  SOLV      983             0.0000000000
      2979       966  TIP3      H1             33.7782064810       34.3488767438       16.1057318360  SOLV      983             0.0000000000
      2980       966  TIP3      H2             34.4880064810       35.4645067438       16.8429218360  SOLV      983             0.0000000000
      2981       967  TIP3      OH2            48.6100564810       28.4215167438        6.6563918360  SOLV      984             0.0000000000
      2982       967  TIP3      H1             48.6991664810       29.3653367438        6.5241018360  SOLV      984             0.0000000000
      2983       967  TIP3      H2             47.9718164810       28.1461567438        5.9983318360  SOLV      984             0.0000000000
      2984       968  TIP3      OH2            47.5431864810       27.6765867438       10.0752118360  SOLV      985             0.0000000000
      2985       968  TIP3      H1             47.5049364810       27.0302167438       10.7801718360  SOLV      985             0.0000000000
      2986       968  TIP3      H2             47.2208364810       27.2100267438        9.3040818360  SOLV      985             0.0000000000
      2987       969  TIP3      OH2            39.9116864810       27.2907967438       11.6682018360  SOLV      986             0.0000000000
      2988       969  TIP3      H1             39.9528964810       26.6651267438       12.3914418360  SOLV      986             0.0000000000
      2989       969  TIP3      H2             40.6144564810       27.9146567438       11.8502418360  SOLV      986             0.0000000000
      2990       970  TIP3      OH2            40.8349964810       31.7406867438       10.2031118360  SOLV      987             0.0000000000
      2991       970  TIP3      H1             40.4655164810       30.9387367438        9.8335418360  SOLV      987             0.0000000000
      2992       970  TIP3      H2             41.7761064810       31.5721767438       10.2494518360  SOLV      987             0.0000000000
      2993       971  TIP3      OH2            37.4450464810       25.4009467438        5.5959918360  SOLV      988             0.0000000000
      2994       971  TIP3      H1             36.9973864810       26.2468167438        5.5776418360  SOLV      988             0.0000000000
      2995       971  TIP3      H2             36.8841664810       24.8213667438        5.0805018360  SOLV      988             0.0000000000
      2996       972  TIP3      OH2            38.1556564810       27.5629067438        7.7217918360  SOLV      989             0.0000000000
      2997       972  TIP3      H1             38.3690064810       26.7930667438        8.2490918360  SOLV      989             0.0000000000
      2998       972  TIP3      H2             38.8934164810       27.6525767438        7.1185518360  SOLV      989             0.0000000000
      2999       973  TIP3      OH2            48.3607564810       35.7197967438        8.5887618360  SOLV      990             0.0000000000
      3000       973  TIP3      H1             48.9803964810       35.0432667438        8.3156818360  SOLV      990             0.0000000000
      3001       973  TIP3      H2             48.1524964810       35.5018767438        9.4972518360  SOLV      990             0.0000000000
      3002       974  TIP3      OH2            45.9326264810       30.1087267438       10.4813118360  SOLV      991             0.0000000000
      3003       974  TIP3      H1             46.2364164810       29.4228667438        9.8867218360  SOLV      991             0.0000000000
      3004       974  TIP3      H2             46.6540264810       30.2275967438       11.0991118360  SOLV      991             0.0000000000
      3005       975  TIP3      OH2            49.0733264810       24.5029667438       10.8087918360  SOLV      992             0.0000000000
      3006       975  TIP3      H1             49.2159164810       23.5566667438       10.8289518360  SOLV      992             0.0000000000
      3007       975  TIP3      H2             48.9672264810       24.7099467438        9.8802818360  SOLV      992             0.0000000000
      3008       976  TIP3      OH2            42.2281564810       22.6046067438        8.0812718360  SOLV      993             0.0000000000
      3009       976  TIP3      H1             42.2712664810       23.4644567438        7.6629018360  SOLV      993             0.0000000000
      3010       976  TIP3      H2             41.7705664810       22.0520767438        7.4475918360  SOLV      993             0.0000000000
      3011       977  TIP3      OH2            38.8483064810       25.0011867438        8.8434118360  SOLV      994             0.0000000000
      3012       977  TIP3      H1             39.5019664810       24.4513567438        9.2754218360  SOLV      994             0.0000000000
      3013       977  TIP3      H2             38.8722364810       24.7270867438        7.9266118360  SOLV      994             0.0000000000
      3014       978  TIP3      OH2            44.0047564810       26.5513167438        8.0585618360  SOLV      995             0.0000000000
      3015       978  TIP3      H1             44.6208564810       26.0248567438        8.5679618360  SOLV      995             0.0000000000
      3016       978  TIP3      H2             43.4186364810       25.9111867438        7.6549218360  SOLV      995             0.0000000000
      3017       979  TIP3      OH2            41.0383464810       21.5224467438       12.1553518360  SOLV      996             0.0000000000
      3018       979  TIP3      H1             40.8195164810       22.0525067438       11.3889518360  SOLV      996             0.0000000000
      3019       979  TIP3      H2             40.3704364810       21.7489967438       12.8024918360  SOLV      996             0.0000000000
      3020       980  TIP3      OH2            48.4073264810       31.0225567438        5.6992618360  SOLV      997             0.0000000000
      3021       980  TIP3      H1             48.1118364810       30.6997867438        4.8479518360  SOLV      997             0.0000000000
      3022       980  TIP3      H2             48.0831064810       31.9222267438        5.7405218360  SOLV      997             0.0000000000
      3023       981  TIP3      OH2            43.6074864810       29.1980167438       12.4427218360  SOLV      998             0.0000000000
      3024       981  TIP3      H1             42.8673964810       29.7961667438       12.5462418360  SOLV      998             0.0000000000
      3025       981  TIP3      H2             44.3214364810       29.7519767438       12.1270818360  SOLV      998             0.0000000000
      3026       982  TIP3      OH2            40.6320764810       23.4146267438       10.1075718360  SOLV      999             0.0000000000
      3027       982  TIP3      H1             41.2457064810       24.0473867438       10.4808118360  SOLV      999             0.0000000000
      3028       982  TIP3      H2             41.1441464810       22.9421267438        9.4512618360  SOLV      999             0.0000000000
      3029       983  TIP3      OH2            42.0149164810       31.1623167438       13.2298718360  SOLV      1000            0.0000000000
      3030       983  TIP3      H1             42.0096764810       32.0416667438       12.8518018360  SOLV      1000            0.0000000000
      3031       983  TIP3      H2             41.1613264810       31.0787267438       13.6548618360  SOLV      1000            0.0000000000
      3032       984  TIP3      OH2            38.1360064810       30.8331067438        4.0118018360  SOLV      1001            0.0000000000
      3033       984  TIP3      H1             37.8640964810       31.0622067438        3.1230918360  SOLV      1001            0.0000000000
      3034       984  TIP3      H2             38.1815764810       31.6709867438        4.4723318360  SOLV      1001            0.0000000000
      3035       985  TIP3      OH2            45.0648164810       18.8279567438        9.6078418360  SOLV      1002            0.0000000000
      3036       985  TIP3      H1             44.9472364810       17.8795567438        9.5536718360  SOLV      1002            0.0000000000
      3037       985  TIP3      H2             44.2098264810       19.1605667438        9.8809518360  SOLV      1002            0.0000000000
      3038       986  TIP3      OH2            47.3313064810       27.6655167438        4.1084218360  SOLV      1003            0.0000000000
      3039       986  TIP3      H1             46.6198564810       28.2004867438        3.7564718360  SOLV      1003            0.0000000000
      3040       986  TIP3      H2             48.0222664810       27.7207267438        3.4483118360  SOLV      1003            0.0000000000
      3041       987  TIP3      OH2            47.3852264810       26.1229467438        1.1469218360  SOLV      1004            0.0000000000
      3042       987  TIP3      H1             48.0862164810       26.1456367438        1.7983218360  SOLV      1004            0.0000000000
      3043       987  TIP3      H2             47.6875164810       25.4949167438        0.4908518360  SOLV      1004            0.0000000000
      3044       988  TIP3      OH2            42.3824464810       28.5054667438        6.9425118360  SOLV      1005            0.0000000000
      3045       988  TIP3      H1             42.0519664810       28.1348067438        6.1242118360  SOLV      1005            0.0000000000
      3046       988  TIP3      H2             42.9708564810       27.8348667438        7.2893418360  SOLV      1005            0.0000000000
      3047       989  TIP3      OH2            43.7491964810       31.9335267438        9.6237318360  SOLV      1006            0.0000000000
      3048       989  TIP3      H1             43.6543264810       31.3548367438        8.8671918360  SOLV      1006            0.0000000000
      3049       989  TIP3      H2             44.4785564810       31.5620967438       10.1200118360  SOLV      1006            0.0000000000
      3050       990  TIP3      OH2            42.7489964810       27.2740267438       10.5760118360  SOLV      1007            0.0000000000
      3051       990  TIP3      H1             43.3142464810       27.3954467438        9.8131318360  SOLV      1007            0.0000000000
      3052       990  TIP3      H2             43.0678864810       27.9115267438       11.2148618360  SOLV      1007            0.0000000000
      3053       991  TIP3      OH2            49.0582164810       32.7772167438       11.3100618360  SOLV      1008            0.0000000000
      3054       991  TIP3      H1             48.8178764810       33.4395267438       11.9579818360  SOLV      1008            0.0000000000
      3055       991  TIP3      H2             48.8600364810       31.9427367438       11.7350218360  SOLV      1008            0.0000000000
      3056       992  TIP3      OH2            43.6290664810       31.6732967438       15.2932018360  SOLV      1009            0.0000000000
      3057       992  TIP3      H1             43.3178164810       32.4556167438       15.7485218360  SOLV      1009            0.0000000000
      3058       992  TIP3      H2             42.9790864810       31.5202067438       14.6074018360  SOLV      1009            0.0000000000
      3059       993  TIP3      OH2            49.6080264810       27.0371367438        2.7451318360  SOLV      1010            0.0000000000
      3060       993  TIP3      H1             50.1875764810       27.1871667438        3.4920218360  SOLV      1010            0.0000000000
      3061       993  TIP3      H2             50.0220264810       27.5078767438        2.0217718360  SOLV      1010            0.0000000000
      3062       994  TIP3      OH2            40.5490564810       27.8714067438       14.5217718360  SOLV      1011            0.0000000000
      3063       994  TIP3      H1             40.6193764810       28.5220867438       15.2202718360  SOLV      1011            0.0000000000
      3064       994  TIP3      H2             39.6582764810       27.9741567438       14.1868618360  SOLV      1011            0.0000000000
      3065       995  TIP3      OH2            47.3345164810       33.7739867438        6.1804418360  SOLV      1012            0.0000000000
      3066       995  TIP3      H1             47.8082764810       34.0696167438        6.9578618360  SOLV      1012            0.0000000000
      3067       995  TIP3      H2             46.7714464810       34.5121467438        5.9474018360  SOLV      1012            0.0000000000
      3068       996  TIP3      OH2            41.8686564810       33.7447967438       16.0565818360  SOLV      1013            0.0000000000
      3069       996  TIP3      H1             41.8761864810       33.6087667438       15.1091318360  SOLV      1013            0.0000000000
      3070       996  TIP3      H2             40.9526964810       33.6276067438       16.3085818360  SOLV      1013            0.0000000000
      3071       997  TIP3      OH2            41.3727164810       27.5748967438        4.5317918360  SOLV      1014            0.0000000000
      3072       997  TIP3      H1             41.0808464810       28.3430667438        4.0409218360  SOLV      1014            0.0000000000
      3073       997  TIP3      H2             40.6982364810       26.9155167438        4.3689318360  SOLV      1014            0.0000000000
      3074       998  TIP3      OH2            37.4657264810       29.9378167438       13.3467718360  SOLV      1015            0.0000000000
      3075       998  TIP3      H1             36.9645664810       29.9097567438       12.5317418360  SOLV      1015            0.0000000000
      3076       998  TIP3      H2             37.4710964810       29.0321367438       13.6565018360  SOLV      1015            0.0000000000
      3077       999  TIP3      OH2            37.2159964810       32.7181967438       10.2307918360  SOLV      1016            0.0000000000
      3078       999  TIP3      H1             38.1620564810       32.5738967438       10.2117418360  SOLV      1016            0.0000000000
      3079       999  TIP3      H2             37.1036264810       33.5024767438       10.7679118360  SOLV      1016            0.0000000000
      3080      1000  TIP3      OH2            46.3922464810       32.9580867438       14.7893018360  SOLV      1017            0.0000000000
      3081      1000  TIP3      H1             46.4797064810       33.7845467438       15.2642118360  SOLV      1017            0.0000000000
      3082      1000  TIP3      H2             45.5287564810       32.6284667438       15.0382318360  SOLV      1017            0.0000000000
      3083      1001  TIP3      OH2            46.8068264810       36.7304567438        4.5953618360  SOLV      1018            0.0000000000
      3084      1001  TIP3      H1             46.7314264810       36.6091767438        3.6488818360  SOLV      1018            0.0000000000
      3085      1001  TIP3      H2             46.8396964810       37.6797267438        4.7138218360  SOLV      1018            0.0000000000
      3086      1002  TIP3      OH2            40.4602064810       35.5191567438        6.3762618360  SOLV      1019            0.0000000000
      3087      1002  TIP3      H1             40.6122464810       35.1711967438        7.2549118360  SOLV      1019            0.0000000000
      3088      1002  TIP3      H2             39.6092464810       35.1628867438        6.1209818360  SOLV      1019            0.0000000000
      3089      1003  TIP3      OH2            49.5772364810       35.8101867438        4.3468218360  SOLV      1020            0.0000000000
      3090      1003  TIP3      H1             48.6422164810       35.9103767438        4.5255218360  SOLV      1020            0.0000000000
      3091      1003  TIP3      H2             49.8574264810       35.1007867438        4.9251418360  SOLV      1020            0.0000000000
      3092      1004  TIP3      OH2            39.7147764810       31.2613567438       14.3900518360  SOLV      1021            0.0000000000
      3093      1004  TIP3      H1             39.9309064810       30.8999167438       15.2496318360  SOLV      1021            0.0000000000
      3094      1004  TIP3      H2             38.8592464810       30.8867367438       14.1804018360  SOLV      1021            0.0000000000
      3095      1005  TIP3      OH2            42.3335764810       19.7314067438       10.3854718360  SOLV      1022            0.0000000000
      3096      1005  TIP3      H1             41.4719464810       19.6442267438        9.9777618360  SOLV      1022            0.0000000000
      3097      1005  TIP3      H2             42.3111464810       20.5874167438       10.8132318360  SOLV      1022            0.0000000000
      3098      1006  TIP3      OH2            46.9963564810       19.4534467438       13.7601718360  SOLV      1023            0.0000000000
      3099      1006  TIP3      H1             47.4166664810       19.0381567438       14.5132318360  SOLV      1023            0.0000000000
      3100      1006  TIP3      H2             46.0633164810       19.2747767438       13.8773718360  SOLV      1023            0.0000000000
      3101      1007  TIP3      OH2            46.6580864810       21.9457867438        1.0452518360  SOLV      1024            0.0000000000
      3102      1007  TIP3      H1             46.4045664810       21.9649467438        1.9680618360  SOLV      1024            0.0000000000
      3103      1007  TIP3      H2             46.4012964810       21.0743267438        0.7438718360  SOLV      1024            0.0000000000
      3104      1008  TIP3      OH2            42.4245864810       24.6968567438       11.4804918360  SOLV      1025            0.0000000000
      3105      1008  TIP3      H1             41.7827964810       24.6565867438       12.1895018360  SOLV      1025            0.0000000000
      3106      1008  TIP3      H2             42.4617864810       25.6233267438       11.2427918360  SOLV      1025            0.0000000000
      3107      1009  TIP3      OH2            42.4214964810       24.9178667438        6.3924918360  SOLV      1026            0.0000000000
      3108      1009  TIP3      H1             41.5287864810       24.5774767438        6.3338718360  SOLV      1026            0.0000000000
      3109      1009  TIP3      H2             42.8721564810       24.5409567438        5.6368118360  SOLV      1026            0.0000000000
      3110      1010  TIP3      OH2            47.9570464810       25.3338967438        5.2095718360  SOLV      1027            0.0000000000
      3111      1010  TIP3      H1             47.5480764810       26.1487567438        4.9180518360  SOLV      1027            0.0000000000
      3112      1010  TIP3      H2             48.6776664810       25.1939067438        4.5952818360  SOLV      1027            0.0000000000
      3113      1011  TIP3      OH2            47.0592064810       25.5095367438       16.6976418360  SOLV      1028            0.0000000000
      3114      1011  TIP3      H1             46.4965864810       24.8046967438       17.0184218360  SOLV      1028            0.0000000000
      3115      1011  TIP3      H2             47.8855464810       25.3887267438       17.1654018360  SOLV      1028            0.0000000000
      3116      1012  TIP3      OH2            48.9618164810       24.7799367438        8.0235418360  SOLV      1029            0.0000000000
      3117      1012  TIP3      H1             48.7662664810       25.3856167438        7.3086018360  SOLV      1029            0.0000000000
      3118      1012  TIP3      H2             49.1430764810       23.9464567438        7.5891718360  SOLV      1029            0.0000000000
      3119      1013  TIP3      OH2            40.1746364810       25.0172067438       13.3476918360  SOLV      1030            0.0000000000
      3120      1013  TIP3      H1             40.1365764810       25.4173667438       14.2164018360  SOLV      1030            0.0000000000
      3121      1013  TIP3      H2             39.6837464810       24.2004467438       13.4379818360  SOLV      1030            0.0000000000
      3122      1014  TIP3      OH2            43.5403764810       22.3914367438        0.1462918360  SOLV      1031            0.0000000000
      3123      1014  TIP3      H1             43.1094464810       21.9464467438        0.8760318360  SOLV      1031            0.0000000000
      3124      1014  TIP3      H2             42.8222464810       22.7630667438       -0.3659581640  SOLV      1031            0.0000000000
      3125      1015  TIP3      OH2            36.7827164810       22.1333867438        7.1981618360  SOLV      1032            0.0000000000
      3126      1015  TIP3      H1             37.4134864810       22.1045967438        7.9175518360  SOLV      1032            0.0000000000
      3127      1015  TIP3      H2             37.2321464810       21.7082567438        6.4677518360  SOLV      1032            0.0000000000
      3128      1016  TIP3      OH2            38.0569264810       22.8795867438        2.6222018360  SOLV      1033            0.0000000000
      3129      1016  TIP3      H1             38.5310964810       23.4705767438        2.0372918360  SOLV      1033            0.0000000000
      3130      1016  TIP3      H2             37.3395664810       23.4098767438        2.9692118360  SOLV      1033            0.0000000000
      3131      1017  TIP3      OH2            48.2257364810       26.4180667438       12.6947818360  SOLV      1034            0.0000000000
      3132      1017  TIP3      H1             48.5492164810       25.7870367438       12.0518318360  SOLV      1034            0.0000000000
      3133      1017  TIP3      H2             47.7856664810       25.8832867438       13.3555218360  SOLV      1034            0.0000000000
      3134      1018  TIP3      OH2            45.0030264810       22.3456167438        7.4789018360  SOLV      1035            0.0000000000
      3135      1018  TIP3      H1             44.0921364810       22.4022967438        7.7675018360  SOLV      1035            0.0000000000
      3136      1018  TIP3      H2             45.5083164810       22.2851667438        8.2896218360  SOLV      1035            0.0000000000
      3137      1019  TIP3      OH2            39.8313664810       23.9742467438        6.3056618360  SOLV      1036            0.0000000000
      3138      1019  TIP3      H1             38.9421664810       24.0737967438        5.9656218360  SOLV      1036            0.0000000000
      3139      1019  TIP3      H2             40.1278564810       23.1325467438        5.9594518360  SOLV      1036            0.0000000000
      3140      1020  TIP3      OH2            43.4845464810       23.9745067438        3.9621218360  SOLV      1037            0.0000000000
      3141      1020  TIP3      H1             44.4160964810       24.1035067438        4.1404318360  SOLV      1037            0.0000000000
      3142      1020  TIP3      H2             43.2695764810       24.6439367438        3.3125918360  SOLV      1037            0.0000000000
      3143      1021  TIP3      OH2            49.4082164810       21.5802467438       10.7430818360  SOLV      1038            0.0000000000
      3144      1021  TIP3      H1             48.7313764810       21.7115567438       11.4070518360  SOLV      1038            0.0000000000
      3145      1021  TIP3      H2             48.9227064810       21.4251967438        9.9328518360  SOLV      1038            0.0000000000
      3146      1022  TIP3      OH2            42.1585664810       25.1687267438        1.5287318360  SOLV      1039            0.0000000000
      3147      1022  TIP3      H1             41.6160764810       24.7891067438        0.8374918360  SOLV      1039            0.0000000000
      3148      1022  TIP3      H2             42.9920564810       25.3631967438        1.1001418360  SOLV      1039            0.0000000000
      3149      1023  TIP3      OH2            40.2937064810       29.7259167438       16.6278918360  SOLV      1040            0.0000000000
      3150      1023  TIP3      H1             41.0259464810       29.9805067438       17.1893418360  SOLV      1040            0.0000000000
      3151      1023  TIP3      H2             39.5135764810       29.9304567438       17.1434318360  SOLV      1040            0.0000000000
      3152      1024  TIP3      OH2            46.3229964810       25.1329167438        9.3658618360  SOLV      1041            0.0000000000
      3153      1024  TIP3      H1             46.8873364810       24.5865767438        8.8188218360  SOLV      1041            0.0000000000
      3154      1024  TIP3      H2             46.1753364810       24.6111067438       10.1546218360  SOLV      1041            0.0000000000
      3155      1025  TIP3      OH2            41.3249664810       21.2695267438        5.7843418360  SOLV      1042            0.0000000000
      3156      1025  TIP3      H1             41.0079164810       20.3670567438        5.7488818360  SOLV      1042            0.0000000000
      3157      1025  TIP3      H2             42.1063764810       21.2712667438        5.2315018360  SOLV      1042            0.0000000000
      3158      1026  TIP3      OH2            44.9495864810       23.5215267438       11.7799018360  SOLV      1043            0.0000000000
      3159      1026  TIP3      H1             44.1141164810       23.9754767438       11.8901418360  SOLV      1043            0.0000000000
      3160      1026  TIP3      H2             45.4736464810       23.7973767438       12.5318918360  SOLV      1043            0.0000000000
      3161      1027  TIP3      OH2            45.4938464810       29.7342967438        3.4645418360  SOLV      1044            0.0000000000
      3162      1027  TIP3      H1             44.7489464810       29.2268267438        3.1423318360  SOLV      1044            0.0000000000
      3163      1027  TIP3      H2             45.3595664810       29.7830967438        4.4110218360  SOLV      1044            0.0000000000
      3164      1028  TIP3      OH2            49.3915264810       22.5482867438        1.6638018360  SOLV      1045            0.0000000000
      3165      1028  TIP3      H1             48.4529464810       22.6598467438        1.5126818360  SOLV      1045            0.0000000000
      3166      1028  TIP3      H2             49.6887364810       23.4049767438        1.9703718360  SOLV      1045            0.0000000000
      3167      1029  TIP3      OH2            47.0130564810       29.9186267438       14.7014518360  SOLV      1046            0.0000000000
      3168      1029  TIP3      H1             46.6676664810       29.5368667438       15.5084118360  SOLV      1046            0.0000000000
      3169      1029  TIP3      H2             46.8130664810       30.8519867438       14.7727418360  SOLV      1046            0.0000000000
      3170      1030  TIP3      OH2            40.6186764810       29.0292967438        9.2343318360  SOLV      1047            0.0000000000
      3171      1030  TIP3      H1             41.3633964810       29.0268667438        8.6329818360  SOLV      1047            0.0000000000
      3172      1030  TIP3      H2             40.6963364810       28.2056767438        9.7158418360  SOLV      1047            0.0000000000
      3173      1031  TIP3      OH2            47.6192564810       31.1927267438        2.4900018360  SOLV      1048            0.0000000000
      3174      1031  TIP3      H1             47.3240964810       32.0195167438        2.8714818360  SOLV      1048            0.0000000000
      3175      1031  TIP3      H2             46.9162564810       30.5734167438        2.6861418360  SOLV      1048            0.0000000000
      3176      1032  TIP3      OH2            37.6266464810       27.4899867438       14.5491818360  SOLV      1049            0.0000000000
      3177      1032  TIP3      H1             37.8495064810       27.0719467438       15.3809318360  SOLV      1049            0.0000000000
      3178      1032  TIP3      H2             37.0246564810       26.8774867438       14.1264618360  SOLV      1049            0.0000000000
      3179      1033  TIP3      OH2            44.6431364810       27.0069767438       16.7621518360  SOLV      1050            0.0000000000
      3180      1033  TIP3      H1             44.3472164810       26.8412767438       15.8670618360  SOLV      1050            0.0000000000
      3181      1033  TIP3      H2             45.5746564810       26.7870067438       16.7515418360  SOLV      1050            0.0000000000
      3182      1034  TIP3      OH2            49.2634164810       32.3801767438       14.6519518360  SOLV      1051            0.0000000000
      3183      1034  TIP3      H1             48.3628464810       32.5634367438       14.3843418360  SOLV      1051            0.0000000000
      3184      1034  TIP3      H2             49.2975264810       32.6391067438       15.5728318360  SOLV      1051            0.0000000000
      3185      1035  TIP3      OH2            42.9936164810       32.5471167438        6.6384818360  SOLV      1052            0.0000000000
      3186      1035  TIP3      H1             43.5208364810       33.3205567438        6.4383618360  SOLV      1052            0.0000000000
      3187      1035  TIP3      H2             42.1134664810       32.7720367438        6.3368818360  SOLV      1052            0.0000000000
      3188      1036  TIP3      OH2            38.7483864810       27.4095267438        1.2257218360  SOLV      1053            0.0000000000
      3189      1036  TIP3      H1             39.3643764810       28.0362467438        1.6052018360  SOLV      1053            0.0000000000
      3190      1036  TIP3      H2             37.8866464810       27.7255067438        1.4973718360  SOLV      1053            0.0000000000
      3191      1037  TIP3      OH2            44.4208464810       30.2101067438        6.2149118360  SOLV      1054            0.0000000000
      3192      1037  TIP3      H1             44.1798464810       31.1355467438        6.2564418360  SOLV      1054            0.0000000000
      3193      1037  TIP3      H2             43.6802064810       29.7512367438        6.6113018360  SOLV      1054            0.0000000000
      3194      1038  TIP3      OH2            44.9355064810       34.3594667438       12.5300218360  SOLV      1055            0.0000000000
      3195      1038  TIP3      H1             45.2979764810       35.2140267438       12.2964618360  SOLV      1055            0.0000000000
      3196      1038  TIP3      H2             45.4670264810       34.0676267438       13.2706518360  SOLV      1055            0.0000000000
      3197      1039  TIP3      OH2            43.1039264810       35.2318667438        5.7601318360  SOLV      1056            0.0000000000
      3198      1039  TIP3      H1             42.1539764810       35.3376067438        5.8114618360  SOLV      1056            0.0000000000
      3199      1039  TIP3      H2             43.4557364810       36.0526067438        6.1048818360  SOLV      1056            0.0000000000
      3200      1040  TIP3      OH2            48.4795864810       30.4585367438       12.2305818360  SOLV      1057            0.0000000000
      3201      1040  TIP3      H1             48.0537164810       30.2307067438       13.0569818360  SOLV      1057            0.0000000000
      3202      1040  TIP3      H2             49.0601664810       29.7197167438       12.0481118360  SOLV      1057            0.0000000000
      3203      1041  TIP3      OH2            39.2605964810       22.2432567438       14.1073218360  SOLV      1058            0.0000000000
      3204      1041  TIP3      H1             38.3678264810       22.5817967438       14.0397218360  SOLV      1058            0.0000000000
      3205      1041  TIP3      H2             39.1618764810       21.3878667438       14.5254018360  SOLV      1058            0.0000000000
      3206      1042  TIP3      OH2            38.9117964810       34.0476967438       12.5422618360  SOLV      1059            0.0000000000
      3207      1042  TIP3      H1             39.1288264810       33.1159367438       12.5112318360  SOLV      1059            0.0000000000
      3208      1042  TIP3      H2             39.1581464810       34.3221967438       13.4255418360  SOLV      1059            0.0000000000
      3209      1043  TIP3      OH2            43.7103164810       32.0695767438        2.2077418360  SOLV      1060            0.0000000000
      3210      1043  TIP3      H1             43.8571164810       31.5495567438        2.9978318360  SOLV      1060            0.0000000000
      3211      1043  TIP3      H2             43.7074864810       32.9763367438        2.5143318360  SOLV      1060            0.0000000000
      3212      1044  TIP3      OH2            40.1634264810       29.3219067438        2.7182818360  SOLV      1061            0.0000000000
      3213      1044  TIP3      H1             39.4773564810       29.6741567438        3.2852518360  SOLV      1061            0.0000000000
      3214      1044  TIP3      H2             40.6862164810       30.0848667438        2.4717118360  SOLV      1061            0.0000000000
      3215      1045  TIP3      OH2            47.9949364810       21.9842867438       12.9971818360  SOLV      1062            0.0000000000
      3216      1045  TIP3      H1             48.6937264810       22.0581567438       13.6471518360  SOLV      1062            0.0000000000
      3217      1045  TIP3      H2             47.6140764810       21.1197867438       13.1514718360  SOLV      1062            0.0000000000
      3218      1046  TIP3      OH2            48.7794264810       21.6364567438        4.0944118360  SOLV      1063            0.0000000000
      3219      1046  TIP3      H1             48.9992564810       22.1079967438        3.2909518360  SOLV      1063            0.0000000000
      3220      1046  TIP3      H2             49.3378264810       22.0307167438        4.7644718360  SOLV      1063            0.0000000000
      3221      1047  TIP3      OH2            46.4480364810       33.7669367438        2.9571618360  SOLV      1064            0.0000000000
      3222      1047  TIP3      H1             45.6316464810       34.2639067438        3.0095918360  SOLV      1064            0.0000000000
      3223      1047  TIP3      H2             46.9776664810       34.2422867438        2.3170418360  SOLV      1064            0.0000000000
      3224      1048  TIP3      OH2            45.9794164810       23.3643367438        4.9292518360  SOLV      1065            0.0000000000
      3225      1048  TIP3      H1             46.7916764810       23.8686567438        4.9754218360  SOLV      1065            0.0000000000
      3226      1048  TIP3      H2             45.7347164810       23.2193067438        5.8432118360  SOLV      1065            0.0000000000
      3227      1049  TIP3      OH2            46.5150564810       24.3506067438       14.1139118360  SOLV      1066            0.0000000000
      3228      1049  TIP3      H1             46.6340864810       24.9241467438       14.8709518360  SOLV      1066            0.0000000000
      3229      1049  TIP3      H2             47.1705164810       23.6625467438       14.2286918360  SOLV      1066            0.0000000000
      3230      1050  TIP3      OH2            46.8630864810       20.4456367438        5.8673618360  SOLV      1067            0.0000000000
      3231      1050  TIP3      H1             46.5164364810       21.0626967438        6.5117918360  SOLV      1067            0.0000000000
      3232      1050  TIP3      H2             47.5217764810       20.9462067438        5.3859118360  SOLV      1067            0.0000000000
      3233      1051  TIP3      OH2            43.7863464810       34.8106567438        2.9388518360  SOLV      1068            0.0000000000
      3234      1051  TIP3      H1             43.9472164810       35.6104067438        2.4381118360  SOLV      1068            0.0000000000
      3235      1051  TIP3      H2             43.5891264810       35.1172567438        3.8239118360  SOLV      1068            0.0000000000
      3236      1052  TIP3      OH2            42.5207864810       21.5085767438        2.5546118360  SOLV      1069            0.0000000000
      3237      1052  TIP3      H1             42.4372664810       22.3968867438        2.9012518360  SOLV      1069            0.0000000000
      3238      1052  TIP3      H2             43.4108164810       21.2432467438        2.7862918360  SOLV      1069            0.0000000000
      3239      1053  TIP3      OH2            40.7793164810       31.9357967438        1.6150618360  SOLV      1070            0.0000000000
      3240      1053  TIP3      H1             41.3714664810       32.6352767438        1.8913018360  SOLV      1070            0.0000000000
      3241      1053  TIP3      H2             41.2386164810       31.5027467438        0.8955218360  SOLV      1070            0.0000000000
      3242      1054  TIP3      OH2            39.0952364810       24.6000967438        0.7310018360  SOLV      1071            0.0000000000
      3243      1054  TIP3      H1             39.0504964810       25.5394067438        0.9097018360  SOLV      1071            0.0000000000
      3244      1054  TIP3      H2             38.2075564810       24.3645867438        0.4612118360  SOLV      1071            0.0000000000
      3245      1055  TIP3      OH2            39.9034364810       19.3817567438        9.4041018360  SOLV      1072            0.0000000000
      3246      1055  TIP3      H1             39.6744164810       19.4410067438        8.4766018360  SOLV      1072            0.0000000000
      3247      1055  TIP3      H2             39.4607764810       18.5903067438        9.7105118360  SOLV      1072            0.0000000000
      3248      1056  TIP3      OH2            38.8337664810       33.3224667438        5.5646818360  SOLV      1073            0.0000000000
      3249      1056  TIP3      H1             38.0016264810       33.7947367438        5.5918218360  SOLV      1073            0.0000000000
      3250      1056  TIP3      H2             39.3795964810       33.8322267438        4.9659918360  SOLV      1073            0.0000000000
      3251      1057  TIP3      OH2            38.1221364810       35.9348367438       16.8944818360  SOLV      1074            0.0000000000
      3252      1057  TIP3      H1             38.6623564810       35.7182367438       17.6544018360  SOLV      1074            0.0000000000
      3253      1057  TIP3      H2             37.6409364810       35.1294367438       16.7047318360  SOLV      1074            0.0000000000
      3254      1058  TIP3      OH2            42.7194764810       34.8542767438       18.5149018360  SOLV      1075            0.0000000000
      3255      1058  TIP3      H1             43.4871964810       34.3953567438       18.8558218360  SOLV      1075            0.0000000000
      3256      1058  TIP3      H2             42.6980964810       34.6282567438       17.5850218360  SOLV      1075            0.0000000000
      3257      1059  TIP3      OH2            49.2963464810       33.2343867438       17.2440518360  SOLV      1076            0.0000000000
      3258      1059  TIP3      H1             48.9452964810       32.3776867438       17.4870918360  SOLV      1076            0.0000000000
      3259      1059  TIP3      H2             50.0226664810       33.3770567438       17.8509518360  SOLV      1076            0.0000000000
      3260      1060  TIP3      OH2            38.0290864810       29.7452467438       17.8489118360  SOLV      1077            0.0000000000
      3261      1060  TIP3      H1             38.1731364810       28.8433167438       17.5625818360  SOLV      1077            0.0000000000
      3262      1060  TIP3      H2             37.2568264810       30.0314567438       17.3611418360  SOLV      1077            0.0000000000
      3263      1061  TIP3      OH2            44.6846964810       29.7150567438       17.2815518360  SOLV      1078            0.0000000000
      3264      1061  TIP3      H1             44.3560764810       29.9858667438       16.4242918360  SOLV      1078            0.0000000000
      3265      1061  TIP3      H2             44.8365164810       28.7740367438       17.1940518360  SOLV      1078            0.0000000000
      3266      1062  TIP3      OH2            47.7227964810       31.1359867438       -0.2828281640  SOLV      1079            0.0000000000
      3267      1062  TIP3      H1             47.4542064810       31.3161967438        0.6180618360  SOLV      1079            0.0000000000
      3268      1062  TIP3      H2             47.5163564810       30.2106067438       -0.4142481640  SOLV      1079            0.0000000000
      3269      1063  TIP3      OH2            38.8617364810       26.9455767438       17.2688418360  SOLV      1080            0.0000000000
      3270      1063  TIP3      H1             39.2698564810       26.0882367438       17.1479018360  SOLV      1080            0.0000000000
      3271      1063  TIP3      H2             38.6014964810       26.9597067438       18.1898718360  SOLV      1080            0.0000000000
      3272      1064  TIP3      OH2            43.5198364810       28.0614367438        2.2871718360  SOLV      1081            0.0000000000
      3273      1064  TIP3      H1             43.0600364810       27.5772667438        2.9730218360  SOLV      1081            0.0000000000
      3274      1064  TIP3      H2             43.7747064810       27.3929767438        1.6512218360  SOLV      1081            0.0000000000
      3275      1065  TIP3      OH2            42.8087664810       25.9541467438       14.6431318360  SOLV      1082            0.0000000000
      3276      1065  TIP3      H1             42.1903764810       26.6288067438       14.9236018360  SOLV      1082            0.0000000000
      3277      1065  TIP3      H2             43.1528864810       26.2755367438       13.8097518360  SOLV      1082            0.0000000000
      3278      1066  TIP3      OH2            44.5908764810       26.3046167438        0.5494918360  SOLV      1083            0.0000000000
      3279      1066  TIP3      H1             44.4103764810       26.1497367438       -0.3776781640  SOLV      1083            0.0000000000
      3280      1066  TIP3      H2             45.5409264810       26.4124867438        0.5942818360  SOLV      1083            0.0000000000
      3281      1067  TIP3      OH2            47.8285864810       28.4256767438       17.9206118360  SOLV      1084            0.0000000000
      3282      1067  TIP3      H1             48.7817064810       28.5095867438       17.8932118360  SOLV      1084            0.0000000000
      3283      1067  TIP3      H2             47.6680464810       27.7138567438       18.5401018360  SOLV      1084            0.0000000000
      3284      1068  TIP3      OH2            43.1481364810       23.3092267438       15.7254418360  SOLV      1085            0.0000000000
      3285      1068  TIP3      H1             43.2982264810       22.5803567438       15.1234118360  SOLV      1085            0.0000000000
      3286      1068  TIP3      H2             43.1503764810       24.0863967438       15.1666618360  SOLV      1085            0.0000000000
      3287      1069  TIP3      OH2            43.5607064810       21.6788067438       13.2181818360  SOLV      1086            0.0000000000
      3288      1069  TIP3      H1             44.0964564810       22.1304767438       12.5661118360  SOLV      1086            0.0000000000
      3289      1069  TIP3      H2             42.7086664810       21.5707867438       12.7955918360  SOLV      1086            0.0000000000
      3290      1070  TIP3      OH2            45.1425464810       27.1184267438       13.4577018360  SOLV      1087            0.0000000000
      3291      1070  TIP3      H1             45.8930264810       26.9621767438       12.8844818360  SOLV      1087            0.0000000000
      3292      1070  TIP3      H2             44.8033764810       27.9700867438       13.1822518360  SOLV      1087            0.0000000000
      3293      1071  TIP3      OH2            49.5581664810       24.9336067438       18.4862318360  SOLV      1088            0.0000000000
      3294      1071  TIP3      H1             49.7502964810       24.0025467438       18.3746818360  SOLV      1088            0.0000000000
      3295      1071  TIP3      H2             50.4157964810       25.3585567438       18.4757718360  SOLV      1088            0.0000000000
      3296      1072  TIP3      OH2            41.6267664810       24.5075767438       17.6370018360  SOLV      1089            0.0000000000
      3297      1072  TIP3      H1             40.8596664810       23.9750567438       17.4267618360  SOLV      1089            0.0000000000
      3298      1072  TIP3      H2             42.3056664810       24.1976167438       17.0376318360  SOLV      1089            0.0000000000
      3299      1073  TIP3      OH2            44.3662564810       19.1353767438       13.6495418360  SOLV      1090            0.0000000000
      3300      1073  TIP3      H1             44.2682164810       20.0816967438       13.5441618360  SOLV      1090            0.0000000000
      3301      1073  TIP3      H2             43.6238764810       18.7627567438       13.1738918360  SOLV      1090            0.0000000000
      3302      1074  TIP3      OH2            45.6303064810       23.4569167438       17.2133818360  SOLV      1091            0.0000000000
      3303      1074  TIP3      H1             45.3948464810       23.2375867438       18.1148718360  SOLV      1091            0.0000000000
      3304      1074  TIP3      H2             44.8469964810       23.2500367438       16.7036318360  SOLV      1091            0.0000000000
      3305      1075  TIP3      OH2            48.3459664810       22.5842667438       16.2887318360  SOLV      1092            0.0000000000
      3306      1075  TIP3      H1             47.3985064810       22.6162367438       16.4210618360  SOLV      1092            0.0000000000
      3307      1075  TIP3      H2             48.6586364810       21.9589767438       16.9425518360  SOLV      1092            0.0000000000
      3308      1076  TIP3      OH2            49.9801164810       21.2183767438       18.2939218360  SOLV      1093            0.0000000000
      3309      1076  TIP3      H1             49.8832964810       20.2661067438       18.2881118360  SOLV      1093            0.0000000000
      3310      1076  TIP3      H2             49.6584264810       21.4870567438       19.1544718360  SOLV      1093            0.0000000000
      3311      1077  TIP3      OH2            39.8070464810       22.4279567438       17.3414718360  SOLV      1094            0.0000000000
      3312      1077  TIP3      H1             40.0187864810       21.7215667438       16.7312218360  SOLV      1094            0.0000000000
      3313      1077  TIP3      H2             39.6957964810       21.9905567438       18.1855918360  SOLV      1094            0.0000000000
      3314      1078  TIP3      OH2            44.5880664810       18.4291167438       16.3208218360  SOLV      1095            0.0000000000
      3315      1078  TIP3      H1             45.2999064810       17.7893367438       16.3067318360  SOLV      1095            0.0000000000
      3316      1078  TIP3      H2             44.4871064810       18.6959467438       15.4071318360  SOLV      1095            0.0000000000
      3317      1079  TIP3      OH2            44.9418164810       20.1119567438       18.3744518360  SOLV      1096            0.0000000000
      3318      1079  TIP3      H1             44.8100364810       19.6363367438       17.5543018360  SOLV      1096            0.0000000000
      3319      1079  TIP3      H2             44.3425564810       20.8563167438       18.3191618360  SOLV      1096            0.0000000000
      3320      1080  TIP3      OH2            44.4880464810       36.9949867438        1.5508518360  SOLV      1097            0.0000000000
      3321      1080  TIP3      H1             45.4211164810       37.1528567438        1.6946918360  SOLV      1097            0.0000000000
      3322      1080  TIP3      H2             44.2239264810       37.6702867438        0.9260018360  SOLV      1097            0.0000000000
      3323      1081  TIP3      OH2            38.0565364810       31.6313667438        1.0336618360  SOLV      1098            0.0000000000
      3324      1081  TIP3      H1             38.9704564810       31.7102567438        1.3070518360  SOLV      1098            0.0000000000
      3325      1081  TIP3      H2             38.0638464810       30.9443267438        0.3672218360  SOLV      1098            0.0000000000
      3326      1082  TIP3      OH2            36.7055964810       37.0242167438        6.1110518360  SOLV      1099            0.0000000000
      3327      1082  TIP3      H1             36.0583064810       36.5623867438        5.5781718360  SOLV      1099            0.0000000000
      3328      1082  TIP3      H2             37.0600564810       36.3525467438        6.6936718360  SOLV      1099            0.0000000000
      3329      1083  TIP3      OH2            37.5755164810       35.1049167438        7.9156718360  SOLV      1100            0.0000000000
      3330      1083  TIP3      H1             37.2411964810       34.2246467438        8.0876918360  SOLV      1100            0.0000000000
      3331      1083  TIP3      H2             37.7977564810       35.4504167438        8.7802318360  SOLV      1100            0.0000000000
      3332      1084  TIP3      OH2            37.6554664810       28.1804567438       10.3671618360  SOLV      1101            0.0000000000
      3333      1084  TIP3      H1             37.8397564810       28.0986267438        9.4314518360  SOLV      1101            0.0000000000
      3334      1084  TIP3      H2             38.5047564810       28.0561567438       10.7908018360  SOLV      1101            0.0000000000
      3335      1085  TIP3      OH2            37.2529464810       23.4509567438       16.5080418360  SOLV      1102            0.0000000000
      3336      1085  TIP3      H1             38.1724364810       23.3287867438       16.7443518360  SOLV      1102            0.0000000000
      3337      1085  TIP3      H2             36.8033964810       22.7009267438       16.8973918360  SOLV      1102            0.0000000000
      3338      1086  TIP3      OH2            38.4741964810       21.7631167438        9.3993318360  SOLV      1103            0.0000000000
      3339      1086  TIP3      H1             38.9193564810       20.9713667438        9.7013018360  SOLV      1103            0.0000000000
      3340      1086  TIP3      H2             38.9404964810       22.4796367438        9.8298918360  SOLV      1103            0.0000000000
      3341      1087  TIP3      OH2            36.7782264810       24.7624167438       10.4683518360  SOLV      1104            0.0000000000
      3342      1087  TIP3      H1             37.2702064810       24.5414667438        9.6775518360  SOLV      1104            0.0000000000
      3343      1087  TIP3      H2             37.1403164810       25.6027567438       10.7493018360  SOLV      1104            0.0000000000
      3344      1088  TIP3      OH2            37.0918764810       21.0203267438        4.5225918360  SOLV      1105            0.0000000000
      3345      1088  TIP3      H1             36.1667164810       21.2289867438        4.3931418360  SOLV      1105            0.0000000000
      3346      1088  TIP3      H2             37.5458664810       21.5044067438        3.8328218360  SOLV      1105            0.0000000000
      3347      1089  TIP3      OH2            37.0554164810       19.7582267438       12.8668418360  SOLV      1106            0.0000000000
      3348      1089  TIP3      H1             36.3904664810       19.5122567438       13.5099318360  SOLV      1106            0.0000000000
      3349      1089  TIP3      H2             36.6125464810       20.3802667438       12.2896418360  SOLV      1106            0.0000000000
      3350      1090  TIP3      OH2            39.2473464810       32.9336367438       17.0114218360  SOLV      1107            0.0000000000
      3351      1090  TIP3      H1             38.4265964810       33.1082867438       16.5508918360  SOLV      1107            0.0000000000
      3352      1090  TIP3      H2             38.9951264810       32.8601067438       17.9318618360  SOLV      1107            0.0000000000
      3353      1091  TIP3      OH2            42.2016364810       33.9077567438       13.2698218360  SOLV      1108            0.0000000000
      3354      1091  TIP3      H1             41.7767464810       34.7176067438       12.9872818360  SOLV      1108            0.0000000000
      3355      1091  TIP3      H2             43.1059164810       33.9931667438       12.9678018360  SOLV      1108            0.0000000000
      3356      1092  TIP3      OH2            46.5127764810       35.3067567438       16.2291918360  SOLV      1109            0.0000000000
      3357      1092  TIP3      H1             46.6975264810       34.9733667438       17.1072218360  SOLV      1109            0.0000000000
      3358      1092  TIP3      H2             47.3592264810       35.6166167438       15.9071118360  SOLV      1109            0.0000000000
      3359      1093  TIP3      OH2            48.8578164810       36.5926467438       15.4733318360  SOLV      1110            0.0000000000
      3360      1093  TIP3      H1             49.5347064810       35.9598767438       15.2332518360  SOLV      1110            0.0000000000
      3361      1093  TIP3      H2             49.1796964810       36.9936967438       16.2806618360  SOLV      1110            0.0000000000
      3362      1094  TIP3      OH2            39.6033064810       37.1641467438       13.3173518360  SOLV      1111            0.0000000000
      3363      1094  TIP3      H1             38.8829464810       37.6042467438       12.8661218360  SOLV      1111            0.0000000000
      3364      1094  TIP3      H2             39.2377064810       36.9136167438       14.1657518360  SOLV      1111            0.0000000000
      3365      1095  TIP3      OH2            42.0705664810       36.7645367438       12.3470718360  SOLV      1112            0.0000000000
      3366      1095  TIP3      H1             41.2057864810       36.8363867438       12.7510818360  SOLV      1112            0.0000000000
      3367      1095  TIP3      H2             42.0154664810       37.3112667438       11.5633218360  SOLV      1112            0.0000000000
      3368      1096  TIP3      OH2            46.7811264810       36.6524267438       11.5226718360  SOLV      1113            0.0000000000
      3369      1096  TIP3      H1             46.3245264810       37.1813967438       10.8685118360  SOLV      1113            0.0000000000
      3370      1096  TIP3      H2             46.9439264810       37.2555667438       12.2479018360  SOLV      1113            0.0000000000
      3371      1097  TIP3      OH2            49.1087564810       35.5303867438       12.4677018360  SOLV      1114            0.0000000000
      3372      1097  TIP3      H1             48.2041264810       35.6954067438       12.2019118360  SOLV      1114            0.0000000000
      3373      1097  TIP3      H2             49.5376164810       36.3836067438       12.4020418360  SOLV      1114            0.0000000000
      3374      1098  TIP3      OH2            39.0181164810       35.7873967438       10.2275318360  SOLV      1115            0.0000000000
      3375      1098  TIP3      H1             38.9997164810       35.3619067438       11.0847618360  SOLV      1115            0.0000000000
      3376      1098  TIP3      H2             39.8229064810       35.4688967438        9.8187518360  SOLV      1115            0.0000000000
      3377      1099  TIP3      OH2            41.1594264810       34.4972667438        8.8825218360  SOLV      1116            0.0000000000
      3378      1099  TIP3      H1             40.9404964810       33.5810067438        9.0521218360  SOLV      1116            0.0000000000
      3379      1099  TIP3      H2             41.9836464810       34.6373067438        9.3486618360  SOLV      1116            0.0000000000
      3380      1100  TIP3      OH2            43.6966764810       34.9671967438        9.7313218360  SOLV      1117            0.0000000000
      3381      1100  TIP3      H1             43.9092464810       34.0790967438        9.4444118360  SOLV      1117            0.0000000000
      3382      1100  TIP3      H2             43.7611864810       34.9329667438       10.6857218360  SOLV      1117            0.0000000000
      3383      1101  TIP3      OH2            47.2050464810       20.6312567438        8.8756518360  SOLV      1118            0.0000000000
      3384      1101  TIP3      H1             46.5307264810       20.0018167438        9.1312318360  SOLV      1118            0.0000000000
      3385      1101  TIP3      H2             47.7689664810       20.1471467438        8.2724418360  SOLV      1118            0.0000000000
      3386      1102  TIP3      OH2            39.5317964810       19.2652867438        6.6976418360  SOLV      1119            0.0000000000
      3387      1102  TIP3      H1             38.7547764810       19.0307767438        6.1902318360  SOLV      1119            0.0000000000
      3388      1102  TIP3      H2             40.0621564810       18.4684967438        6.7064418360  SOLV      1119            0.0000000000
      3389      1103  TIP3      OH2            38.3681364810       19.0630967438        2.5012518360  SOLV      1120            0.0000000000
      3390      1103  TIP3      H1             38.8072064810       19.6741467438        1.9096018360  SOLV      1120            0.0000000000
      3391      1103  TIP3      H2             37.7343764810       19.6015067438        2.9752518360  SOLV      1120            0.0000000000
      3392      1104  TIP3      OH2            44.1110564810       19.1919967438        6.5109518360  SOLV      1121            0.0000000000
      3393      1104  TIP3      H1             44.9853964810       19.5804267438        6.4813818360  SOLV      1121            0.0000000000
      3394      1104  TIP3      H2             43.9751364810       18.9767767438        7.4336718360  SOLV      1121            0.0000000000
      3395      1105  TIP3      OH2            49.6678964810       19.2219767438        8.1601218360  SOLV      1122            0.0000000000
      3396      1105  TIP3      H1             49.7440564810       19.3171367438        7.2107218360  SOLV      1122            0.0000000000
      3397      1105  TIP3      H2             49.3928164810       18.3142667438        8.2890318360  SOLV      1122            0.0000000000
      3398      1106  TIP3      OH2            38.2690864810       35.0113167438        3.3987618360  SOLV      1123            0.0000000000
      3399      1106  TIP3      H1             37.5840764810       34.9732067438        2.7312718360  SOLV      1123            0.0000000000
      3400      1106  TIP3      H2             38.2728064810       35.9240767438        3.6869718360  SOLV      1123            0.0000000000
      3401      1107  TIP3      OH2            40.2290464810       20.9792467438        0.9436618360  SOLV      1124            0.0000000000
      3402      1107  TIP3      H1             40.7203864810       20.3494867438        0.4162118360  SOLV      1124            0.0000000000
      3403      1107  TIP3      H2             40.8526764810       21.2751867438        1.6067818360  SOLV      1124            0.0000000000
      3404      1108  TIP3      OH2            45.2550564810       21.2723967438        3.4007118360  SOLV      1125            0.0000000000
      3405      1108  TIP3      H1             45.4331864810       20.6257167438        4.0835718360  SOLV      1125            0.0000000000
      3406      1108  TIP3      H2             45.2016764810       22.1061667438        3.8678218360  SOLV      1125            0.0000000000
      3407      1109  TIP3      OH2            47.1334364810       36.2208067438        1.7963818360  SOLV      1126            0.0000000000
      3408      1109  TIP3      H1             47.9994564810       36.5875467438        1.6182018360  SOLV      1126            0.0000000000
      3409      1109  TIP3      H2             46.8867164810       35.7816067438        0.9824618360  SOLV      1126            0.0000000000
      3410      1110  TIP3      OH2            39.4895964810       19.7794767438       16.2152618360  SOLV      1127            0.0000000000
      3411      1110  TIP3      H1             39.1234164810       19.0137367438       16.6577318360  SOLV      1127            0.0000000000
      3412      1110  TIP3      H2             40.4024464810       19.8084967438       16.5017718360  SOLV      1127            0.0000000000
      3413      1111  TIP3      OH2            41.4626764810       19.1299167438       17.7509718360  SOLV      1128            0.0000000000
      3414      1111  TIP3      H1             42.3610364810       18.8559367438       17.5663118360  SOLV      1128            0.0000000000
      3415      1111  TIP3      H2             41.0759864810       18.3875167438       18.2152318360  SOLV      1128            0.0000000000
      3416      1112  TIP3      OH2            40.0872064810       35.9313967438        0.4239718360  SOLV      1129            0.0000000000
      3417      1112  TIP3      H1             39.8196664810       36.2176867438        1.2972818360  SOLV      1129            0.0000000000
      3418      1112  TIP3      H2             40.8584664810       35.3853167438        0.5762218360  SOLV      1129            0.0000000000
      3419      1113  TIP3      OH2            11.6100564810       46.9215167438        6.6563918360  SOLV      1130            0.0000000000
      3420      1113  TIP3      H1             11.6991664810       47.8653367438        6.5241018360  SOLV      1130            0.0000000000
      3421      1113  TIP3      H2             10.9718164810       46.6461567438        5.9983318360  SOLV      1130            0.0000000000
      3422      1114  TIP3      OH2            10.5431864810       46.1765867438       10.0752118360  SOLV      1131            0.0000000000
      3423      1114  TIP3      H1             10.5049364810       45.5302167438       10.7801718360  SOLV      1131            0.0000000000
      3424      1114  TIP3      H2             10.2208364810       45.7100267438        9.3040818360  SOLV      1131            0.0000000000
      3425      1115  TIP3      OH2             2.9116864810       45.7907967438       11.6682018360  SOLV      1132            0.0000000000
      3426      1115  TIP3      H1              2.9528964810       45.1651267438       12.3914418360  SOLV      1132            0.0000000000
      3427      1115  TIP3      H2              3.6144564810       46.4146567438       11.8502418360  SOLV      1132            0.0000000000
      3428      1116  TIP3      OH2            14.2492064810       49.1156267438        8.3767218360  SOLV      1133            0.0000000000
      3429      1116  TIP3      H1             13.8084764810       48.3952267438        8.8272818360  SOLV      1133            0.0000000000
      3430      1116  TIP3      H2             14.2361764810       49.8363467438        9.0064918360  SOLV      1133            0.0000000000
      3431      1117  TIP3      OH2             0.4450464810       43.9009467438        5.5959918360  SOLV      1134            0.0000000000
      3432      1117  TIP3      H1             -0.0026135190       44.7468167438        5.5776418360  SOLV      1134            0.0000000000
      3433      1117  TIP3      H2             -0.1158335190       43.3213667438        5.0805018360  SOLV      1134            0.0000000000
      3434      1118  TIP3      OH2             1.1556564810       46.0629067438        7.7217918360  SOLV      1135            0.0000000000
      3435      1118  TIP3      H1              1.3690064810       45.2930667438        8.2490918360  SOLV      1135            0.0000000000
      3436      1118  TIP3      H2              1.8934164810       46.1525767438        7.1185518360  SOLV      1135            0.0000000000
      3437      1119  TIP3      OH2             8.9326264810       48.6087267438       10.4813118360  SOLV      1136            0.0000000000
      3438      1119  TIP3      H1              9.2364164810       47.9228667438        9.8867218360  SOLV      1136            0.0000000000
      3439      1119  TIP3      H2              9.6540264810       48.7275967438       11.0991118360  SOLV      1136            0.0000000000
      3440      1120  TIP3      OH2            17.5956064810       40.2102567438       11.3419318360  SOLV      1137            0.0000000000
      3441      1120  TIP3      H1             17.6448264810       40.8203767438       12.0778418360  SOLV      1137            0.0000000000
      3442      1120  TIP3      H2             18.0211164810       40.6713467438       10.6190418360  SOLV      1137            0.0000000000
      3443      1121  TIP3      OH2            12.0733264810       43.0029667438       10.8087918360  SOLV      1138            0.0000000000
      3444      1121  TIP3      H1             12.2159164810       42.0566667438       10.8289518360  SOLV      1138            0.0000000000
      3445      1121  TIP3      H2             11.9672264810       43.2099467438        9.8802818360  SOLV      1138            0.0000000000
      3446      1122  TIP3      OH2             5.2281564810       41.1046067438        8.0812718360  SOLV      1139            0.0000000000
      3447      1122  TIP3      H1              5.2712664810       41.9644567438        7.6629018360  SOLV      1139            0.0000000000
      3448      1122  TIP3      H2              4.7705664810       40.5520767438        7.4475918360  SOLV      1139            0.0000000000
      3449      1123  TIP3      OH2            12.9504264810       41.2351667438        6.4821018360  SOLV      1140            0.0000000000
      3450      1123  TIP3      H1             13.5968564810       40.9064867438        7.1068618360  SOLV      1140            0.0000000000
      3451      1123  TIP3      H2             13.4603664810       41.7530667438        5.8592418360  SOLV      1140            0.0000000000
      3452      1124  TIP3      OH2             1.8483064810       43.5011867438        8.8434118360  SOLV      1141            0.0000000000
      3453      1124  TIP3      H1              2.5019664810       42.9513567438        9.2754218360  SOLV      1141            0.0000000000
      3454      1124  TIP3      H2              1.8722364810       43.2270867438        7.9266118360  SOLV      1141            0.0000000000
      3455      1125  TIP3      OH2             7.0047564810       45.0513167438        8.0585618360  SOLV      1142            0.0000000000
      3456      1125  TIP3      H1              7.6208564810       44.5248567438        8.5679618360  SOLV      1142            0.0000000000
      3457      1125  TIP3      H2              6.4186364810       44.4111867438        7.6549218360  SOLV      1142            0.0000000000
      3458      1126  TIP3      OH2            17.9870664810       41.6881767438       13.5779118360  SOLV      1143            0.0000000000
      3459      1126  TIP3      H1             17.2985264810       42.3462467438       13.4825718360  SOLV      1143            0.0000000000
      3460      1126  TIP3      H2             18.0025264810       41.4909667438       14.5144518360  SOLV      1143            0.0000000000
      3461      1127  TIP3      OH2             4.0383464810       40.0224467438       12.1553518360  SOLV      1144            0.0000000000
      3462      1127  TIP3      H1              3.8195164810       40.5525067438       11.3889518360  SOLV      1144            0.0000000000
      3463      1127  TIP3      H2              3.3704364810       40.2489967438       12.8024918360  SOLV      1144            0.0000000000
      3464      1128  TIP3      OH2            11.4073264810       49.5225567438        5.6992618360  SOLV      1145            0.0000000000
      3465      1128  TIP3      H1             11.1118364810       49.1997867438        4.8479518360  SOLV      1145            0.0000000000
      3466      1128  TIP3      H2             11.0831064810       50.4222267438        5.7405218360  SOLV      1145            0.0000000000
      3467      1129  TIP3      OH2             6.6074864810       47.6980167438       12.4427218360  SOLV      1146            0.0000000000
      3468      1129  TIP3      H1              5.8673964810       48.2961667438       12.5462418360  SOLV      1146            0.0000000000
      3469      1129  TIP3      H2              7.3214364810       48.2519767438       12.1270818360  SOLV      1146            0.0000000000
      3470      1130  TIP3      OH2            14.7142664810       40.5260967438        8.4626918360  SOLV      1147            0.0000000000
      3471      1130  TIP3      H1             14.4990664810       39.7604367438        8.9952918360  SOLV      1147            0.0000000000
      3472      1130  TIP3      H2             15.3700064810       40.9985567438        8.9755418360  SOLV      1147            0.0000000000
      3473      1131  TIP3      OH2             3.6320764810       41.9146267438       10.1075718360  SOLV      1148            0.0000000000
      3474      1131  TIP3      H1              4.2457064810       42.5473867438       10.4808118360  SOLV      1148            0.0000000000
      3475      1131  TIP3      H2              4.1441464810       41.4421267438        9.4512618360  SOLV      1148            0.0000000000
      3476      1132  TIP3      OH2             1.1360064810       49.3331067438        4.0118018360  SOLV      1149            0.0000000000
      3477      1132  TIP3      H1              0.8640964810       49.5622067438        3.1230918360  SOLV      1149            0.0000000000
      3478      1132  TIP3      H2              1.1815764810       50.1709867438        4.4723318360  SOLV      1149            0.0000000000
      3479      1133  TIP3      OH2            15.0616764810       39.2412267438       12.1420418360  SOLV      1150            0.0000000000
      3480      1133  TIP3      H1             14.3255964810       39.8519367438       12.1041718360  SOLV      1150            0.0000000000
      3481      1133  TIP3      H2             15.7450764810       39.6561267438       11.6156818360  SOLV      1150            0.0000000000
      3482      1134  TIP3      OH2             8.0648164810       37.3279567438        9.6078418360  SOLV      1151            0.0000000000
      3483      1134  TIP3      H1              7.9472364810       36.3795567438        9.5536718360  SOLV      1151            0.0000000000
      3484      1134  TIP3      H2              7.2098264810       37.6605667438        9.8809518360  SOLV      1151            0.0000000000
      3485      1135  TIP3      OH2            15.8587664810       49.2035667438       14.3358218360  SOLV      1152            0.0000000000
      3486      1135  TIP3      H1             15.9983964810       48.6118167438       13.5965218360  SOLV      1152            0.0000000000
      3487      1135  TIP3      H2             16.0260464810       50.0761567438       13.9797018360  SOLV      1152            0.0000000000
      3488      1136  TIP3      OH2            10.3313064810       46.1655167438        4.1084218360  SOLV      1153            0.0000000000
      3489      1136  TIP3      H1              9.6198564810       46.7004867438        3.7564718360  SOLV      1153            0.0000000000
      3490      1136  TIP3      H2             11.0222664810       46.2207267438        3.4483118360  SOLV      1153            0.0000000000
      3491      1137  TIP3      OH2            10.3852264810       44.6229467438        1.1469218360  SOLV      1154            0.0000000000
      3492      1137  TIP3      H1             11.0862164810       44.6456367438        1.7983218360  SOLV      1154            0.0000000000
      3493      1137  TIP3      H2             10.6875164810       43.9949167438        0.4908518360  SOLV      1154            0.0000000000
      3494      1138  TIP3      OH2            17.7006964810       45.5433667438       12.4018618360  SOLV      1155            0.0000000000
      3495      1138  TIP3      H1             17.0481064810       46.2379267438       12.4909518360  SOLV      1155            0.0000000000
      3496      1138  TIP3      H2             18.1657264810       45.7534567438       11.5920218360  SOLV      1155            0.0000000000
      3497      1139  TIP3      OH2            13.7370764810       46.3748467438        5.0600118360  SOLV      1156            0.0000000000
      3498      1139  TIP3      H1             13.0051764810       46.6032167438        5.6330718360  SOLV      1156            0.0000000000
      3499      1139  TIP3      H2             14.1842964810       45.6611167438        5.5147618360  SOLV      1156            0.0000000000
      3500      1140  TIP3      OH2            13.6344264810       44.5491067438       14.1277118360  SOLV      1157            0.0000000000
      3501      1140  TIP3      H1             13.7143364810       45.3125467438       14.6995618360  SOLV      1157            0.0000000000
      3502      1140  TIP3      H2             13.0331964810       44.8283467438       13.4372218360  SOLV      1157            0.0000000000
      3503      1141  TIP3      OH2             5.3824464810       47.0054667438        6.9425118360  SOLV      1158            0.0000000000
      3504      1141  TIP3      H1              5.0519664810       46.6348067438        6.1242118360  SOLV      1158            0.0000000000
      3505      1141  TIP3      H2              5.9708564810       46.3348667438        7.2893418360  SOLV      1158            0.0000000000
      3506      1142  TIP3      OH2             5.7489964810       45.7740267438       10.5760118360  SOLV      1159            0.0000000000
      3507      1142  TIP3      H1              6.3142464810       45.8954467438        9.8131318360  SOLV      1159            0.0000000000
      3508      1142  TIP3      H2              6.0678864810       46.4115267438       11.2148618360  SOLV      1159            0.0000000000
      3509      1143  TIP3      OH2            12.6080264810       45.5371367438        2.7451318360  SOLV      1160            0.0000000000
      3510      1143  TIP3      H1             13.1875764810       45.6871667438        3.4920218360  SOLV      1160            0.0000000000
      3511      1143  TIP3      H2             13.0220264810       46.0078767438        2.0217718360  SOLV      1160            0.0000000000
      3512      1144  TIP3      OH2             3.5490564810       46.3714067438       14.5217718360  SOLV      1161            0.0000000000
      3513      1144  TIP3      H1              3.6193764810       47.0220867438       15.2202718360  SOLV      1161            0.0000000000
      3514      1144  TIP3      H2              2.6582764810       46.4741567438       14.1868618360  SOLV      1161            0.0000000000
      3515      1145  TIP3      OH2            16.3068664810       37.2871767438        2.5581018360  SOLV      1162            0.0000000000
      3516      1145  TIP3      H1             15.4069364810       37.4260767438        2.8531618360  SOLV      1162            0.0000000000
      3517      1145  TIP3      H2             16.5587064810       38.1186367438        2.1562718360  SOLV      1162            0.0000000000
      3518      1146  TIP3      OH2             4.3727164810       46.0748967438        4.5317918360  SOLV      1163            0.0000000000
      3519      1146  TIP3      H1              4.0808464810       46.8430667438        4.0409218360  SOLV      1163            0.0000000000
      3520      1146  TIP3      H2              3.6982364810       45.4155167438        4.3689318360  SOLV      1163            0.0000000000
      3521      1147  TIP3      OH2             0.4657264810       48.4378167438       13.3467718360  SOLV      1164            0.0000000000
      3522      1147  TIP3      H1             -0.0354335190       48.4097567438       12.5317418360  SOLV      1164            0.0000000000
      3523      1147  TIP3      H2              0.4710964810       47.5321367438       13.6565018360  SOLV      1164            0.0000000000
      3524      1148  TIP3      OH2            15.5658264810       43.3774167438       16.3933818360  SOLV      1165            0.0000000000
      3525      1148  TIP3      H1             15.1585064810       43.8579767438       15.6727118360  SOLV      1165            0.0000000000
      3526      1148  TIP3      H2             15.6063964810       42.4720167438       16.0854618360  SOLV      1165            0.0000000000
      3527      1149  TIP3      OH2             2.7147764810       49.7613567438       14.3900518360  SOLV      1166            0.0000000000
      3528      1149  TIP3      H1              2.9309064810       49.3999167438       15.2496318360  SOLV      1166            0.0000000000
      3529      1149  TIP3      H2              1.8592464810       49.3867367438       14.1804018360  SOLV      1166            0.0000000000
      3530      1150  TIP3      OH2             5.3335764810       38.2314067438       10.3854718360  SOLV      1167            0.0000000000
      3531      1150  TIP3      H1              4.4719464810       38.1442267438        9.9777618360  SOLV      1167            0.0000000000
      3532      1150  TIP3      H2              5.3111464810       39.0874167438       10.8132318360  SOLV      1167            0.0000000000
      3533      1151  TIP3      OH2             9.9963564810       37.9534467438       13.7601718360  SOLV      1168            0.0000000000
      3534      1151  TIP3      H1             10.4166664810       37.5381567438       14.5132318360  SOLV      1168            0.0000000000
      3535      1151  TIP3      H2              9.0633164810       37.7747767438       13.8773718360  SOLV      1168            0.0000000000
      3536      1152  TIP3      OH2            13.3228464810       41.7089667438       14.6136218360  SOLV      1169            0.0000000000
      3537      1152  TIP3      H1             12.8087964810       41.5831867438       15.4112218360  SOLV      1169            0.0000000000
      3538      1152  TIP3      H2             13.1673164810       42.6212767438       14.3692418360  SOLV      1169            0.0000000000
      3539      1153  TIP3      OH2            14.0853364810       46.5699667438        0.3749218360  SOLV      1170            0.0000000000
      3540      1153  TIP3      H1             14.1274164810       46.3473567438       -0.5550781640  SOLV      1170            0.0000000000
      3541      1153  TIP3      H2             14.9345464810       46.9686767438        0.5649118360  SOLV      1170            0.0000000000
      3542      1154  TIP3      OH2             9.6580864810       40.4457867438        1.0452518360  SOLV      1171            0.0000000000
      3543      1154  TIP3      H1              9.4045664810       40.4649467438        1.9680618360  SOLV      1171            0.0000000000
      3544      1154  TIP3      H2              9.4012964810       39.5743267438        0.7438718360  SOLV      1171            0.0000000000
      3545      1155  TIP3      OH2             5.4245864810       43.1968567438       11.4804918360  SOLV      1172            0.0000000000
      3546      1155  TIP3      H1              4.7827964810       43.1565867438       12.1895018360  SOLV      1172            0.0000000000
      3547      1155  TIP3      H2              5.4617864810       44.1233267438       11.2427918360  SOLV      1172            0.0000000000
      3548      1156  TIP3      OH2             5.4214964810       43.4178667438        6.3924918360  SOLV      1173            0.0000000000
      3549      1156  TIP3      H1              4.5287864810       43.0774767438        6.3338718360  SOLV      1173            0.0000000000
      3550      1156  TIP3      H2              5.8721564810       43.0409567438        5.6368118360  SOLV      1173            0.0000000000
      3551      1157  TIP3      OH2            10.9570464810       43.8338967438        5.2095718360  SOLV      1174            0.0000000000
      3552      1157  TIP3      H1             10.5480764810       44.6487567438        4.9180518360  SOLV      1174            0.0000000000
      3553      1157  TIP3      H2             11.6776664810       43.6939067438        4.5952818360  SOLV      1174            0.0000000000
      3554      1158  TIP3      OH2            10.0592064810       44.0095367438       16.6976418360  SOLV      1175            0.0000000000
      3555      1158  TIP3      H1              9.4965864810       43.3046967438       17.0184218360  SOLV      1175            0.0000000000
      3556      1158  TIP3      H2             10.8855464810       43.8887267438       17.1654018360  SOLV      1175            0.0000000000
      3557      1159  TIP3      OH2            11.9618164810       43.2799367438        8.0235418360  SOLV      1176            0.0000000000
      3558      1159  TIP3      H1             11.7662664810       43.8856167438        7.3086018360  SOLV      1176            0.0000000000
      3559      1159  TIP3      H2             12.1430764810       42.4464567438        7.5891718360  SOLV      1176            0.0000000000
      3560      1160  TIP3      OH2             3.1746364810       43.5172067438       13.3476918360  SOLV      1177            0.0000000000
      3561      1160  TIP3      H1              3.1365764810       43.9173667438       14.2164018360  SOLV      1177            0.0000000000
      3562      1160  TIP3      H2              2.6837464810       42.7004467438       13.4379818360  SOLV      1177            0.0000000000
      3563      1161  TIP3      OH2             6.5403764810       40.8914367438        0.1462918360  SOLV      1178            0.0000000000
      3564      1161  TIP3      H1              6.1094464810       40.4464467438        0.8760318360  SOLV      1178            0.0000000000
      3565      1161  TIP3      H2              5.8222464810       41.2630667438       -0.3659581640  SOLV      1178            0.0000000000
      3566      1162  TIP3      OH2            -0.2172835190       40.6333867438        7.1981618360  SOLV      1179            0.0000000000
      3567      1162  TIP3      H1              0.4134864810       40.6045967438        7.9175518360  SOLV      1179            0.0000000000
      3568      1162  TIP3      H2              0.2321464810       40.2082567438        6.4677518360  SOLV      1179            0.0000000000
      3569      1163  TIP3      OH2             1.0569264810       41.3795867438        2.6222018360  SOLV      1180            0.0000000000
      3570      1163  TIP3      H1              1.5310964810       41.9705767438        2.0372918360  SOLV      1180            0.0000000000
      3571      1163  TIP3      H2              0.3395664810       41.9098767438        2.9692118360  SOLV      1180            0.0000000000
      3572      1164  TIP3      OH2            11.2257364810       44.9180667438       12.6947818360  SOLV      1181            0.0000000000
      3573      1164  TIP3      H1             11.5492164810       44.2870367438       12.0518318360  SOLV      1181            0.0000000000
      3574      1164  TIP3      H2             10.7856664810       44.3832867438       13.3555218360  SOLV      1181            0.0000000000
      3575      1165  TIP3      OH2             8.0030264810       40.8456167438        7.4789018360  SOLV      1182            0.0000000000
      3576      1165  TIP3      H1              7.0921364810       40.9022967438        7.7675018360  SOLV      1182            0.0000000000
      3577      1165  TIP3      H2              8.5083164810       40.7851667438        8.2896218360  SOLV      1182            0.0000000000
      3578      1166  TIP3      OH2             2.8313664810       42.4742467438        6.3056618360  SOLV      1183            0.0000000000
      3579      1166  TIP3      H1              1.9421664810       42.5737967438        5.9656218360  SOLV      1183            0.0000000000
      3580      1166  TIP3      H2              3.1278564810       41.6325467438        5.9594518360  SOLV      1183            0.0000000000
      3581      1167  TIP3      OH2             6.4845464810       42.4745067438        3.9621218360  SOLV      1184            0.0000000000
      3582      1167  TIP3      H1              7.4160964810       42.6035067438        4.1404318360  SOLV      1184            0.0000000000
      3583      1167  TIP3      H2              6.2695764810       43.1439367438        3.3125918360  SOLV      1184            0.0000000000
      3584      1168  TIP3      OH2            12.4082164810       40.0802467438       10.7430818360  SOLV      1185            0.0000000000
      3585      1168  TIP3      H1             11.7313764810       40.2115567438       11.4070518360  SOLV      1185            0.0000000000
      3586      1168  TIP3      H2             11.9227064810       39.9251967438        9.9328518360  SOLV      1185            0.0000000000
      3587      1169  TIP3      OH2             5.1585664810       43.6687267438        1.5287318360  SOLV      1186            0.0000000000
      3588      1169  TIP3      H1              4.6160764810       43.2891067438        0.8374918360  SOLV      1186            0.0000000000
      3589      1169  TIP3      H2              5.9920564810       43.8631967438        1.1001418360  SOLV      1186            0.0000000000
      3590      1170  TIP3      OH2             3.2937064810       48.2259167438       16.6278918360  SOLV      1187            0.0000000000
      3591      1170  TIP3      H1              4.0259464810       48.4805067438       17.1893418360  SOLV      1187            0.0000000000
      3592      1170  TIP3      H2              2.5135764810       48.4304567438       17.1434318360  SOLV      1187            0.0000000000
      3593      1171  TIP3      OH2             9.3229964810       43.6329167438        9.3658618360  SOLV      1188            0.0000000000
      3594      1171  TIP3      H1              9.8873364810       43.0865767438        8.8188218360  SOLV      1188            0.0000000000
      3595      1171  TIP3      H2              9.1753364810       43.1111067438       10.1546218360  SOLV      1188            0.0000000000
      3596      1172  TIP3      OH2             4.3249664810       39.7695267438        5.7843418360  SOLV      1189            0.0000000000
      3597      1172  TIP3      H1              4.0079164810       38.8670567438        5.7488818360  SOLV      1189            0.0000000000
      3598      1172  TIP3      H2              5.1063764810       39.7712667438        5.2315018360  SOLV      1189            0.0000000000
      3599      1173  TIP3      OH2             7.9495864810       42.0215267438       11.7799018360  SOLV      1190            0.0000000000
      3600      1173  TIP3      H1              7.1141164810       42.4754767438       11.8901418360  SOLV      1190            0.0000000000
      3601      1173  TIP3      H2              8.4736464810       42.2973767438       12.5318918360  SOLV      1190            0.0000000000
      3602      1174  TIP3      OH2             8.4938464810       48.2342967438        3.4645418360  SOLV      1191            0.0000000000
      3603      1174  TIP3      H1              7.7489464810       47.7268267438        3.1423318360  SOLV      1191            0.0000000000
      3604      1174  TIP3      H2              8.3595664810       48.2830967438        4.4110218360  SOLV      1191            0.0000000000
      3605      1175  TIP3      OH2            15.6437364810       47.3671167438       12.2513018360  SOLV      1192            0.0000000000
      3606      1175  TIP3      H1             16.2856164810       47.8237467438       11.7075218360  SOLV      1192            0.0000000000
      3607      1175  TIP3      H2             14.8134264810       47.4803567438       11.7887118360  SOLV      1192            0.0000000000
      3608      1176  TIP3      OH2            12.3915264810       41.0482867438        1.6638018360  SOLV      1193            0.0000000000
      3609      1176  TIP3      H1             11.4529464810       41.1598467438        1.5126818360  SOLV      1193            0.0000000000
      3610      1176  TIP3      H2             12.6887364810       41.9049767438        1.9703718360  SOLV      1193            0.0000000000
      3611      1177  TIP3      OH2            10.0130564810       48.4186267438       14.7014518360  SOLV      1194            0.0000000000
      3612      1177  TIP3      H1              9.6676664810       48.0368667438       15.5084118360  SOLV      1194            0.0000000000
      3613      1177  TIP3      H2              9.8130664810       49.3519867438       14.7727418360  SOLV      1194            0.0000000000
      3614      1178  TIP3      OH2            13.1098764810       42.9155567438        3.3245418360  SOLV      1195            0.0000000000
      3615      1178  TIP3      H1             14.0017764810       42.7780567438        3.6436618360  SOLV      1195            0.0000000000
      3616      1178  TIP3      H2             13.1662364810       43.7061667438        2.7878918360  SOLV      1195            0.0000000000
      3617      1179  TIP3      OH2             3.6186764810       47.5292967438        9.2343318360  SOLV      1196            0.0000000000
      3618      1179  TIP3      H1              4.3633964810       47.5268667438        8.6329818360  SOLV      1196            0.0000000000
      3619      1179  TIP3      H2              3.6963364810       46.7056767438        9.7158418360  SOLV      1196            0.0000000000
      3620      1180  TIP3      OH2            10.6192564810       49.6927267438        2.4900018360  SOLV      1197            0.0000000000
      3621      1180  TIP3      H1             10.3240964810       50.5195167438        2.8714818360  SOLV      1197            0.0000000000
      3622      1180  TIP3      H2              9.9162564810       49.0734167438        2.6861418360  SOLV      1197            0.0000000000
      3623      1181  TIP3      OH2             0.6266464810       45.9899867438       14.5491818360  SOLV      1198            0.0000000000
      3624      1181  TIP3      H1              0.8495064810       45.5719467438       15.3809318360  SOLV      1198            0.0000000000
      3625      1181  TIP3      H2              0.0246564810       45.3774867438       14.1264618360  SOLV      1198            0.0000000000
      3626      1182  TIP3      OH2             7.6431364810       45.5069767438       16.7621518360  SOLV      1199            0.0000000000
      3627      1182  TIP3      H1              7.3472164810       45.3412767438       15.8670618360  SOLV      1199            0.0000000000
      3628      1182  TIP3      H2              8.5746564810       45.2870067438       16.7515418360  SOLV      1199            0.0000000000
      3629      1183  TIP3      OH2            17.9947464810       43.1249667438        3.0192118360  SOLV      1200            0.0000000000
      3630      1183  TIP3      H1             17.4403764810       42.7287667438        2.3469618360  SOLV      1200            0.0000000000
      3631      1183  TIP3      H2             18.0951064810       44.0354867438        2.7415418360  SOLV      1200            0.0000000000
      3632      1184  TIP3      OH2            17.9579464810       48.9251367438       15.8563618360  SOLV      1201            0.0000000000
      3633      1184  TIP3      H1             17.1067964810       49.1635167438       15.4890018360  SOLV      1201            0.0000000000
      3634      1184  TIP3      H2             18.5482864810       48.9084567438       15.1030718360  SOLV      1201            0.0000000000
      3635      1185  TIP3      OH2            13.4503064810       46.7189567438       10.5056118360  SOLV      1202            0.0000000000
      3636      1185  TIP3      H1             12.5219964810       46.4871467438       10.4785418360  SOLV      1202            0.0000000000
      3637      1185  TIP3      H2             13.9014164810       45.9419367438       10.1754918360  SOLV      1202            0.0000000000
      3638      1186  TIP3      OH2             1.7483864810       45.9095267438        1.2257218360  SOLV      1203            0.0000000000
      3639      1186  TIP3      H1              2.3643764810       46.5362467438        1.6052018360  SOLV      1203            0.0000000000
      3640      1186  TIP3      H2              0.8866464810       46.2255067438        1.4973718360  SOLV      1203            0.0000000000
      3641      1187  TIP3      OH2             7.4208464810       48.7101067438        6.2149118360  SOLV      1204            0.0000000000
      3642      1187  TIP3      H1              7.1798464810       49.6355467438        6.2564418360  SOLV      1204            0.0000000000
      3643      1187  TIP3      H2              6.6802064810       48.2512367438        6.6113018360  SOLV      1204            0.0000000000
      3644      1188  TIP3      OH2            11.4795864810       48.9585367438       12.2305818360  SOLV      1205            0.0000000000
      3645      1188  TIP3      H1             11.0537164810       48.7307067438       13.0569818360  SOLV      1205            0.0000000000
      3646      1188  TIP3      H2             12.0601664810       48.2197167438       12.0481118360  SOLV      1205            0.0000000000
      3647      1189  TIP3      OH2            13.6824764810       49.8875867438        1.3044818360  SOLV      1206            0.0000000000
      3648      1189  TIP3      H1             14.0357864810       49.5075667438        2.1088318360  SOLV      1206            0.0000000000
      3649      1189  TIP3      H2             12.7338264810       49.7940667438        1.3914118360  SOLV      1206            0.0000000000
      3650      1190  TIP3      OH2             2.2605964810       40.7432567438       14.1073218360  SOLV      1207            0.0000000000
      3651      1190  TIP3      H1              1.3678264810       41.0817967438       14.0397218360  SOLV      1207            0.0000000000
      3652      1190  TIP3      H2              2.1618764810       39.8878667438       14.5254018360  SOLV      1207            0.0000000000
      3653      1191  TIP3      OH2            14.5484064810       48.5597867438        3.5312718360  SOLV      1208            0.0000000000
      3654      1191  TIP3      H1             14.2711664810       47.8317167438        4.0873818360  SOLV      1208            0.0000000000
      3655      1191  TIP3      H2             15.4757064810       48.6789867438        3.7365318360  SOLV      1208            0.0000000000
      3656      1192  TIP3      OH2             3.1634264810       47.8219067438        2.7182818360  SOLV      1209            0.0000000000
      3657      1192  TIP3      H1              2.4773564810       48.1741567438        3.2852518360  SOLV      1209            0.0000000000
      3658      1192  TIP3      H2              3.6862164810       48.5848667438        2.4717118360  SOLV      1209            0.0000000000
      3659      1193  TIP3      OH2            10.9949364810       40.4842867438       12.9971818360  SOLV      1210            0.0000000000
      3660      1193  TIP3      H1             11.6937264810       40.5581567438       13.6471518360  SOLV      1210            0.0000000000
      3661      1193  TIP3      H2             10.6140764810       39.6197867438       13.1514718360  SOLV      1210            0.0000000000
      3662      1194  TIP3      OH2            11.7794264810       40.1364567438        4.0944118360  SOLV      1211            0.0000000000
      3663      1194  TIP3      H1             11.9992564810       40.6079967438        3.2909518360  SOLV      1211            0.0000000000
      3664      1194  TIP3      H2             12.3378264810       40.5307167438        4.7644718360  SOLV      1211            0.0000000000
      3665      1195  TIP3      OH2             8.9794164810       41.8643367438        4.9292518360  SOLV      1212            0.0000000000
      3666      1195  TIP3      H1              9.7916764810       42.3686567438        4.9754218360  SOLV      1212            0.0000000000
      3667      1195  TIP3      H2              8.7347164810       41.7193067438        5.8432118360  SOLV      1212            0.0000000000
      3668      1196  TIP3      OH2             9.5150564810       42.8506067438       14.1139118360  SOLV      1213            0.0000000000
      3669      1196  TIP3      H1              9.6340864810       43.4241467438       14.8709518360  SOLV      1213            0.0000000000
      3670      1196  TIP3      H2             10.1705164810       42.1625467438       14.2286918360  SOLV      1213            0.0000000000
      3671      1197  TIP3      OH2             9.8630864810       38.9456367438        5.8673618360  SOLV      1214            0.0000000000
      3672      1197  TIP3      H1              9.5164364810       39.5626967438        6.5117918360  SOLV      1214            0.0000000000
      3673      1197  TIP3      H2             10.5217764810       39.4462067438        5.3859118360  SOLV      1214            0.0000000000
      3674      1198  TIP3      OH2             5.5207864810       40.0085767438        2.5546118360  SOLV      1215            0.0000000000
      3675      1198  TIP3      H1              5.4372664810       40.8968867438        2.9012518360  SOLV      1215            0.0000000000
      3676      1198  TIP3      H2              6.4108164810       39.7432467438        2.7862918360  SOLV      1215            0.0000000000
      3677      1199  TIP3      OH2            15.7196364810       40.7576367438       14.9488818360  SOLV      1216            0.0000000000
      3678      1199  TIP3      H1             14.8032164810       41.0198067438       14.8612518360  SOLV      1216            0.0000000000
      3679      1199  TIP3      H2             16.0551364810       40.7545367438       14.0524118360  SOLV      1216            0.0000000000
      3680      1200  TIP3      OH2            14.3217364810       44.5077367438        9.0446118360  SOLV      1217            0.0000000000
      3681      1200  TIP3      H1             13.5241764810       44.0927567438        8.7161118360  SOLV      1217            0.0000000000
      3682      1200  TIP3      H2             14.7668464810       43.8171067438        9.5356618360  SOLV      1217            0.0000000000
      3683      1201  TIP3      OH2             2.0952364810       43.1000967438        0.7310018360  SOLV      1218            0.0000000000
      3684      1201  TIP3      H1              2.0504964810       44.0394067438        0.9097018360  SOLV      1218            0.0000000000
      3685      1201  TIP3      H2              1.2075564810       42.8645867438        0.4612118360  SOLV      1218            0.0000000000
      3686      1202  TIP3      OH2             2.9034364810       37.8817567438        9.4041018360  SOLV      1219            0.0000000000
      3687      1202  TIP3      H1              2.6744164810       37.9410067438        8.4766018360  SOLV      1219            0.0000000000
      3688      1202  TIP3      H2              2.4607764810       37.0903067438        9.7105118360  SOLV      1219            0.0000000000
      3689      1203  TIP3      OH2             1.0290864810       48.2452467438       17.8489118360  SOLV      1220            0.0000000000
      3690      1203  TIP3      H1              1.1731364810       47.3433167438       17.5625818360  SOLV      1220            0.0000000000
      3691      1203  TIP3      H2              0.2568264810       48.5314567438       17.3611418360  SOLV      1220            0.0000000000
      3692      1204  TIP3      OH2             7.6846964810       48.2150567438       17.2815518360  SOLV      1221            0.0000000000
      3693      1204  TIP3      H1              7.3560764810       48.4858667438       16.4242918360  SOLV      1221            0.0000000000
      3694      1204  TIP3      H2              7.8365164810       47.2740367438       17.1940518360  SOLV      1221            0.0000000000
      3695      1205  TIP3      OH2            10.7227964810       49.6359867438       -0.2828281640  SOLV      1222            0.0000000000
      3696      1205  TIP3      H1             10.4542064810       49.8161967438        0.6180618360  SOLV      1222            0.0000000000
      3697      1205  TIP3      H2             10.5163564810       48.7106067438       -0.4142481640  SOLV      1222            0.0000000000
      3698      1206  TIP3      OH2            13.4192164810       48.1307867438       14.6647818360  SOLV      1223            0.0000000000
      3699      1206  TIP3      H1             14.1646964810       48.7191567438       14.5451818360  SOLV      1223            0.0000000000
      3700      1206  TIP3      H2             12.6618964810       48.7127567438       14.7280918360  SOLV      1223            0.0000000000
      3701      1207  TIP3      OH2             1.8617364810       45.4455767438       17.2688418360  SOLV      1224            0.0000000000
      3702      1207  TIP3      H1              2.2698564810       44.5882367438       17.1479018360  SOLV      1224            0.0000000000
      3703      1207  TIP3      H2              1.6014964810       45.4597067438       18.1898718360  SOLV      1224            0.0000000000
      3704      1208  TIP3      OH2             6.5198364810       46.5614367438        2.2871718360  SOLV      1225            0.0000000000
      3705      1208  TIP3      H1              6.0600364810       46.0772667438        2.9730218360  SOLV      1225            0.0000000000
      3706      1208  TIP3      H2              6.7747064810       45.8929767438        1.6512218360  SOLV      1225            0.0000000000
      3707      1209  TIP3      OH2             5.8087664810       44.4541467438       14.6431318360  SOLV      1226            0.0000000000
      3708      1209  TIP3      H1              5.1903764810       45.1288067438       14.9236018360  SOLV      1226            0.0000000000
      3709      1209  TIP3      H2              6.1528864810       44.7755367438       13.8097518360  SOLV      1226            0.0000000000
      3710      1210  TIP3      OH2             7.5908764810       44.8046167438        0.5494918360  SOLV      1227            0.0000000000
      3711      1210  TIP3      H1              7.4103764810       44.6497367438       -0.3776781640  SOLV      1227            0.0000000000
      3712      1210  TIP3      H2              8.5409264810       44.9124867438        0.5942818360  SOLV      1227            0.0000000000
      3713      1211  TIP3      OH2            10.8285864810       46.9256767438       17.9206118360  SOLV      1228            0.0000000000
      3714      1211  TIP3      H1             11.7817064810       47.0095867438       17.8932118360  SOLV      1228            0.0000000000
      3715      1211  TIP3      H2             10.6680464810       46.2138567438       18.5401018360  SOLV      1228            0.0000000000
      3716      1212  TIP3      OH2             6.1481364810       41.8092267438       15.7254418360  SOLV      1229            0.0000000000
      3717      1212  TIP3      H1              6.2982264810       41.0803567438       15.1234118360  SOLV      1229            0.0000000000
      3718      1212  TIP3      H2              6.1503764810       42.5863967438       15.1666618360  SOLV      1229            0.0000000000
      3719      1213  TIP3      OH2             6.5607064810       40.1788067438       13.2181818360  SOLV      1230            0.0000000000
      3720      1213  TIP3      H1              7.0964564810       40.6304767438       12.5661118360  SOLV      1230            0.0000000000
      3721      1213  TIP3      H2              5.7086664810       40.0707867438       12.7955918360  SOLV      1230            0.0000000000
      3722      1214  TIP3      OH2             8.1425464810       45.6184267438       13.4577018360  SOLV      1231            0.0000000000
      3723      1214  TIP3      H1              8.8930264810       45.4621767438       12.8844818360  SOLV      1231            0.0000000000
      3724      1214  TIP3      H2              7.8033764810       46.4700867438       13.1822518360  SOLV      1231            0.0000000000
      3725      1215  TIP3      OH2            12.5581664810       43.4336067438       18.4862318360  SOLV      1232            0.0000000000
      3726      1215  TIP3      H1             12.7502964810       42.5025467438       18.3746818360  SOLV      1232            0.0000000000
      3727      1215  TIP3      H2             13.4157964810       43.8585567438       18.4757718360  SOLV      1232            0.0000000000
      3728      1216  TIP3      OH2            13.8748864810       46.2221267438       16.5635018360  SOLV      1233            0.0000000000
      3729      1216  TIP3      H1             13.5933864810       46.9315867438       15.9858818360  SOLV      1233            0.0000000000
      3730      1216  TIP3      H2             14.8173164810       46.1494267438       16.4126218360  SOLV      1233            0.0000000000
      3731      1217  TIP3      OH2             4.6267664810       43.0075767438       17.6370018360  SOLV      1234            0.0000000000
      3732      1217  TIP3      H1              3.8596664810       42.4750567438       17.4267618360  SOLV      1234            0.0000000000
      3733      1217  TIP3      H2              5.3056664810       42.6976167438       17.0376318360  SOLV      1234            0.0000000000
      3734      1218  TIP3      OH2             7.3662564810       37.6353767438       13.6495418360  SOLV      1235            0.0000000000
      3735      1218  TIP3      H1              7.2682164810       38.5816967438       13.5441618360  SOLV      1235            0.0000000000
      3736      1218  TIP3      H2              6.6238764810       37.2627567438       13.1738918360  SOLV      1235            0.0000000000
      3737      1219  TIP3      OH2             8.6303064810       41.9569167438       17.2133818360  SOLV      1236            0.0000000000
      3738      1219  TIP3      H1              8.3948464810       41.7375867438       18.1148718360  SOLV      1236            0.0000000000
      3739      1219  TIP3      H2              7.8469964810       41.7500367438       16.7036318360  SOLV      1236            0.0000000000
      3740      1220  TIP3      OH2            11.3459664810       41.0842667438       16.2887318360  SOLV      1237            0.0000000000
      3741      1220  TIP3      H1             10.3985064810       41.1162367438       16.4210618360  SOLV      1237            0.0000000000
      3742      1220  TIP3      H2             11.6586364810       40.4589767438       16.9425518360  SOLV      1237            0.0000000000
      3743      1221  TIP3      OH2            12.9801164810       39.7183767438       18.2939218360  SOLV      1238            0.0000000000
      3744      1221  TIP3      H1             12.8832964810       38.7661067438       18.2881118360  SOLV      1238            0.0000000000
      3745      1221  TIP3      H2             12.6584264810       39.9870567438       19.1544718360  SOLV      1238            0.0000000000
      3746      1222  TIP3      OH2             2.8070464810       40.9279567438       17.3414718360  SOLV      1239            0.0000000000
      3747      1222  TIP3      H1              3.0187864810       40.2215667438       16.7312218360  SOLV      1239            0.0000000000
      3748      1222  TIP3      H2              2.6957964810       40.4905567438       18.1855918360  SOLV      1239            0.0000000000
      3749      1223  TIP3      OH2             7.5880664810       36.9291167438       16.3208218360  SOLV      1240            0.0000000000
      3750      1223  TIP3      H1              8.2999064810       36.2893367438       16.3067318360  SOLV      1240            0.0000000000
      3751      1223  TIP3      H2              7.4871064810       37.1959467438       15.4071318360  SOLV      1240            0.0000000000
      3752      1224  TIP3      OH2             7.9418164810       38.6119567438       18.3744518360  SOLV      1241            0.0000000000
      3753      1224  TIP3      H1              7.8100364810       38.1363367438       17.5543018360  SOLV      1241            0.0000000000
      3754      1224  TIP3      H2              7.3425564810       39.3563167438       18.3191618360  SOLV      1241            0.0000000000
      3755      1225  TIP3      OH2            17.4389864810       48.0278467438        3.9703418360  SOLV      1242            0.0000000000
      3756      1225  TIP3      H1             18.2891264810       48.4489367438        4.0975018360  SOLV      1242            0.0000000000
      3757      1225  TIP3      H2             17.4444964810       47.2878567438        4.5774818360  SOLV      1242            0.0000000000
      3758      1226  TIP3      OH2            17.8335464810       46.0815867438        5.7939118360  SOLV      1243            0.0000000000
      3759      1226  TIP3      H1             17.1070064810       45.6018467438        6.1916718360  SOLV      1243            0.0000000000
      3760      1226  TIP3      H2             18.4148764810       46.2870567438        6.5260718360  SOLV      1243            0.0000000000
      3761      1227  TIP3      OH2            17.5926664810       48.8663367438       10.7416718360  SOLV      1244            0.0000000000
      3762      1227  TIP3      H1             18.4260864810       48.4883367438       10.4610318360  SOLV      1244            0.0000000000
      3763      1227  TIP3      H2             17.7046964810       49.8094567438       10.6225818360  SOLV      1244            0.0000000000
      3764      1228  TIP3      OH2            18.1018564810       45.9824367438        2.1850418360  SOLV      1245            0.0000000000
      3765      1228  TIP3      H1             17.5799664810       46.3388467438        1.4661318360  SOLV      1245            0.0000000000
      3766      1228  TIP3      H2             18.0687764810       46.6572167438        2.8631318360  SOLV      1245            0.0000000000
      3767      1229  TIP3      OH2            16.4507564810       43.2219967438        0.7357518360  SOLV      1246            0.0000000000
      3768      1229  TIP3      H1             16.5471964810       43.8886967438        0.0557218360  SOLV      1246            0.0000000000
      3769      1229  TIP3      H2             16.3107164810       42.4066267438        0.2543018360  SOLV      1246            0.0000000000
      3770      1230  TIP3      OH2            15.6202264810       44.6022367438        6.3567818360  SOLV      1247            0.0000000000
      3771      1230  TIP3      H1             15.4701064810       43.6570967438        6.3365618360  SOLV      1247            0.0000000000
      3772      1230  TIP3      H2             15.2666764810       44.8833767438        7.2006918360  SOLV      1247            0.0000000000
      3773      1231  TIP3      OH2             0.6554664810       46.6804567438       10.3671618360  SOLV      1248            0.0000000000
      3774      1231  TIP3      H1              0.8397564810       46.5986267438        9.4314518360  SOLV      1248            0.0000000000
      3775      1231  TIP3      H2              1.5047564810       46.5561567438       10.7908018360  SOLV      1248            0.0000000000
      3776      1232  TIP3      OH2            16.4765164810       46.5725667438       15.9956118360  SOLV      1249            0.0000000000
      3777      1232  TIP3      H1             17.0592464810       45.8377967438       16.1873318360  SOLV      1249            0.0000000000
      3778      1232  TIP3      H2             17.0404464810       47.3445967438       16.0421918360  SOLV      1249            0.0000000000
      3779      1233  TIP3      OH2            17.9732264810       44.4751467438       16.6801518360  SOLV      1250            0.0000000000
      3780      1233  TIP3      H1             17.1098964810       44.0963567438       16.5146218360  SOLV      1250            0.0000000000
      3781      1233  TIP3      H2             18.5775964810       43.7366267438       16.6057318360  SOLV      1250            0.0000000000
      3782      1234  TIP3      OH2            15.6981364810       40.6299767438       -0.1466981640  SOLV      1251            0.0000000000
      3783      1234  TIP3      H1             16.3087164810       40.2586567438        0.4901218360  SOLV      1251            0.0000000000
      3784      1234  TIP3      H2             14.8612864810       40.2086667438        0.0493018360  SOLV      1251            0.0000000000
      3785      1235  TIP3      OH2            15.3307064810       42.1848167438        4.8192918360  SOLV      1252            0.0000000000
      3786      1235  TIP3      H1             15.6104164810       41.2778567438        4.9434618360  SOLV      1252            0.0000000000
      3787      1235  TIP3      H2             16.0898764810       42.6189667438        4.4302118360  SOLV      1252            0.0000000000
      3788      1236  TIP3      OH2            15.9425364810       42.7665567438       10.2551818360  SOLV      1253            0.0000000000
      3789      1236  TIP3      H1             16.8753364810       42.9785467438       10.2207818360  SOLV      1253            0.0000000000
      3790      1236  TIP3      H2             15.7072864810       42.8677667438       11.1774818360  SOLV      1253            0.0000000000
      3791      1237  TIP3      OH2            15.9717264810       43.5030867438       13.0311218360  SOLV      1254            0.0000000000
      3792      1237  TIP3      H1             15.1288564810       43.7711267438       13.3971018360  SOLV      1254            0.0000000000
      3793      1237  TIP3      H2             16.4141564810       44.3252767438       12.8202318360  SOLV      1254            0.0000000000
      3794      1238  TIP3      OH2             0.2529464810       41.9509567438       16.5080418360  SOLV      1255            0.0000000000
      3795      1238  TIP3      H1              1.1724364810       41.8287867438       16.7443518360  SOLV      1255            0.0000000000
      3796      1238  TIP3      H2             -0.1966035190       41.2009267438       16.8973918360  SOLV      1255            0.0000000000
      3797      1239  TIP3      OH2            18.2548864810       37.4831067438       18.3846218360  SOLV      1256            0.0000000000
      3798      1239  TIP3      H1             18.6045864810       36.8294567438       17.7790918360  SOLV      1256            0.0000000000
      3799      1239  TIP3      H2             18.4018364810       38.3205167438       17.9448818360  SOLV      1256            0.0000000000
      3800      1240  TIP3      OH2            15.9441864810       39.4477467438        4.8674918360  SOLV      1257            0.0000000000
      3801      1240  TIP3      H1             16.1266864810       38.9988967438        5.6929918360  SOLV      1257            0.0000000000
      3802      1240  TIP3      H2             15.3444764810       38.8631867438        4.4039518360  SOLV      1257            0.0000000000
      3803      1241  TIP3      OH2             1.4741964810       40.2631167438        9.3993318360  SOLV      1258            0.0000000000
      3804      1241  TIP3      H1              1.9193564810       39.4713667438        9.7013018360  SOLV      1258            0.0000000000
      3805      1241  TIP3      H2              1.9404964810       40.9796367438        9.8298918360  SOLV      1258            0.0000000000
      3806      1242  TIP3      OH2            -0.2217735190       43.2624167438       10.4683518360  SOLV      1259            0.0000000000
      3807      1242  TIP3      H1              0.2702064810       43.0414667438        9.6775518360  SOLV      1259            0.0000000000
      3808      1242  TIP3      H2              0.1403164810       44.1027567438       10.7493018360  SOLV      1259            0.0000000000
      3809      1243  TIP3      OH2            17.7746064810       39.5925667438       16.7337518360  SOLV      1260            0.0000000000
      3810      1243  TIP3      H1             16.8571764810       39.8632767438       16.6981018360  SOLV      1260            0.0000000000
      3811      1243  TIP3      H2             17.8975464810       39.0574067438       15.9497218360  SOLV      1260            0.0000000000
      3812      1244  TIP3      OH2            17.8108064810       39.5155567438        1.3955218360  SOLV      1261            0.0000000000
      3813      1244  TIP3      H1             18.2230664810       38.7941267438        0.9203218360  SOLV      1261            0.0000000000
      3814      1244  TIP3      H2             18.4924564810       40.1850167438        1.4539518360  SOLV      1261            0.0000000000
      3815      1245  TIP3      OH2            16.7751964810       37.6821967438       14.5528318360  SOLV      1262            0.0000000000
      3816      1245  TIP3      H1             15.9625464810       38.0072267438       14.1653018360  SOLV      1262            0.0000000000
      3817      1245  TIP3      H2             17.0080464810       36.9220467438       14.0197418360  SOLV      1262            0.0000000000
      3818      1246  TIP3      OH2            10.2050464810       39.1312567438        8.8756518360  SOLV      1263            0.0000000000
      3819      1246  TIP3      H1              9.5307264810       38.5018167438        9.1312318360  SOLV      1263            0.0000000000
      3820      1246  TIP3      H2             10.7689664810       38.6471467438        8.2724418360  SOLV      1263            0.0000000000
      3821      1247  TIP3      OH2            15.3477664810       37.2386567438        8.9883618360  SOLV      1264            0.0000000000
      3822      1247  TIP3      H1             15.9515264810       37.7861967438        8.4864618360  SOLV      1264            0.0000000000
      3823      1247  TIP3      H2             14.4779664810       37.5576967438        8.7477718360  SOLV      1264            0.0000000000
      3824      1248  TIP3      OH2            17.0748064810       38.3775267438        7.3214518360  SOLV      1265            0.0000000000
      3825      1248  TIP3      H1             17.6865564810       37.8630967438        6.7948118360  SOLV      1265            0.0000000000
      3826      1248  TIP3      H2             17.4571464810       39.2547367438        7.3448918360  SOLV      1265            0.0000000000
      3827      1249  TIP3      OH2             2.5317964810       37.7652867438        6.6976418360  SOLV      1266            0.0000000000
      3828      1249  TIP3      H1              1.7547764810       37.5307767438        6.1902318360  SOLV      1266            0.0000000000
      3829      1249  TIP3      H2              3.0621564810       36.9684967438        6.7064418360  SOLV      1266            0.0000000000
      3830      1250  TIP3      OH2             1.3681364810       37.5630967438        2.5012518360  SOLV      1267            0.0000000000
      3831      1250  TIP3      H1              1.8072064810       38.1741467438        1.9096018360  SOLV      1267            0.0000000000
      3832      1250  TIP3      H2              0.7343764810       38.1015067438        2.9752518360  SOLV      1267            0.0000000000
      3833      1251  TIP3      OH2             7.1110564810       37.6919967438        6.5109518360  SOLV      1268            0.0000000000
      3834      1251  TIP3      H1              7.9853964810       38.0804267438        6.4813818360  SOLV      1268            0.0000000000
      3835      1251  TIP3      H2              6.9751364810       37.4767767438        7.4336718360  SOLV      1268            0.0000000000
      3836      1252  TIP3      OH2            12.6678964810       37.7219767438        8.1601218360  SOLV      1269            0.0000000000
      3837      1252  TIP3      H1             12.7440564810       37.8171367438        7.2107218360  SOLV      1269            0.0000000000
      3838      1252  TIP3      H2             12.3928164810       36.8142667438        8.2890318360  SOLV      1269            0.0000000000
      3839      1253  TIP3      OH2            14.0211564810       37.7477567438        3.8526218360  SOLV      1270            0.0000000000
      3840      1253  TIP3      H1             13.3182664810       38.3626767438        3.6427618360  SOLV      1270            0.0000000000
      3841      1253  TIP3      H2             13.5762964810       36.9104267438        3.9837118360  SOLV      1270            0.0000000000
      3842      1254  TIP3      OH2             3.2290464810       39.4792467438        0.9436618360  SOLV      1271            0.0000000000
      3843      1254  TIP3      H1              3.7203864810       38.8494867438        0.4162118360  SOLV      1271            0.0000000000
      3844      1254  TIP3      H2              3.8526764810       39.7751867438        1.6067818360  SOLV      1271            0.0000000000
      3845      1255  TIP3      OH2             8.2550564810       39.7723967438        3.4007118360  SOLV      1272            0.0000000000
      3846      1255  TIP3      H1              8.4331864810       39.1257167438        4.0835718360  SOLV      1272            0.0000000000
      3847      1255  TIP3      H2              8.2016764810       40.6061667438        3.8678218360  SOLV      1272            0.0000000000
      3848      1256  TIP3      OH2             2.4895964810       38.2794767438       16.2152618360  SOLV      1273            0.0000000000
      3849      1256  TIP3      H1              2.1234164810       37.5137367438       16.6577318360  SOLV      1273            0.0000000000
      3850      1256  TIP3      H2              3.4024464810       38.3084967438       16.5017718360  SOLV      1273            0.0000000000
      3851      1257  TIP3      OH2             4.4626764810       37.6299167438       17.7509718360  SOLV      1274            0.0000000000
      3852      1257  TIP3      H1              5.3610364810       37.3559367438       17.5663118360  SOLV      1274            0.0000000000
      3853      1257  TIP3      H2              4.0759864810       36.8875167438       18.2152318360  SOLV      1274            0.0000000000
      3854      1258  TIP3      OH2            12.8839064810       36.9624467438       17.9332518360  SOLV      1275            0.0000000000
      3855      1258  TIP3      H1             12.9606264810       36.5365167438       18.7870218360  SOLV      1275            0.0000000000
      3856      1258  TIP3      H2             13.7775664810       36.9759167438       17.5906018360  SOLV      1275            0.0000000000
      3857      1259  TIP3      OH2            30.1100564810       46.9215167438        6.6563918360  SOLV      1276            0.0000000000
      3858      1259  TIP3      H1             30.1991664810       47.8653367438        6.5241018360  SOLV      1276            0.0000000000
      3859      1259  TIP3      H2             29.4718164810       46.6461567438        5.9983318360  SOLV      1276            0.0000000000
      3860      1260  TIP3      OH2            29.0431864810       46.1765867438       10.0752118360  SOLV      1277            0.0000000000
      3861      1260  TIP3      H1             29.0049364810       45.5302167438       10.7801718360  SOLV      1277            0.0000000000
      3862      1260  TIP3      H2             28.7208364810       45.7100267438        9.3040818360  SOLV      1277            0.0000000000
      3863      1261  TIP3      OH2            21.4116864810       45.7907967438       11.6682018360  SOLV      1278            0.0000000000
      3864      1261  TIP3      H1             21.4528964810       45.1651267438       12.3914418360  SOLV      1278            0.0000000000
      3865      1261  TIP3      H2             22.1144564810       46.4146567438       11.8502418360  SOLV      1278            0.0000000000
      3866      1262  TIP3      OH2            32.7492064810       49.1156267438        8.3767218360  SOLV      1279            0.0000000000
      3867      1262  TIP3      H1             32.3084764810       48.3952267438        8.8272818360  SOLV      1279            0.0000000000
      3868      1262  TIP3      H2             32.7361764810       49.8363467438        9.0064918360  SOLV      1279            0.0000000000
      3869      1263  TIP3      OH2            18.9450464810       43.9009467438        5.5959918360  SOLV      1280            0.0000000000
      3870      1263  TIP3      H1             18.4973864810       44.7468167438        5.5776418360  SOLV      1280            0.0000000000
      3871      1263  TIP3      H2             18.3841664810       43.3213667438        5.0805018360  SOLV      1280            0.0000000000
      3872      1264  TIP3      OH2            19.6556564810       46.0629067438        7.7217918360  SOLV      1281            0.0000000000
      3873      1264  TIP3      H1             19.8690064810       45.2930667438        8.2490918360  SOLV      1281            0.0000000000
      3874      1264  TIP3      H2             20.3934164810       46.1525767438        7.1185518360  SOLV      1281            0.0000000000
      3875      1265  TIP3      OH2            27.4326264810       48.6087267438       10.4813118360  SOLV      1282            0.0000000000
      3876      1265  TIP3      H1             27.7364164810       47.9228667438        9.8867218360  SOLV      1282            0.0000000000
      3877      1265  TIP3      H2             28.1540264810       48.7275967438       11.0991118360  SOLV      1282            0.0000000000
      3878      1266  TIP3      OH2            36.0956064810       40.2102567438       11.3419318360  SOLV      1283            0.0000000000
      3879      1266  TIP3      H1             36.1448264810       40.8203767438       12.0778418360  SOLV      1283            0.0000000000
      3880      1266  TIP3      H2             36.5211164810       40.6713467438       10.6190418360  SOLV      1283            0.0000000000
      3881      1267  TIP3      OH2            30.5733264810       43.0029667438       10.8087918360  SOLV      1284            0.0000000000
      3882      1267  TIP3      H1             30.7159164810       42.0566667438       10.8289518360  SOLV      1284            0.0000000000
      3883      1267  TIP3      H2             30.4672264810       43.2099467438        9.8802818360  SOLV      1284            0.0000000000
      3884      1268  TIP3      OH2            23.7281564810       41.1046067438        8.0812718360  SOLV      1285            0.0000000000
      3885      1268  TIP3      H1             23.7712664810       41.9644567438        7.6629018360  SOLV      1285            0.0000000000
      3886      1268  TIP3      H2             23.2705664810       40.5520767438        7.4475918360  SOLV      1285            0.0000000000
      3887      1269  TIP3      OH2            31.4504264810       41.2351667438        6.4821018360  SOLV      1286            0.0000000000
      3888      1269  TIP3      H1             32.0968564810       40.9064867438        7.1068618360  SOLV      1286            0.0000000000
      3889      1269  TIP3      H2             31.9603664810       41.7530667438        5.8592418360  SOLV      1286            0.0000000000
      3890      1270  TIP3      OH2            20.3483064810       43.5011867438        8.8434118360  SOLV      1287            0.0000000000
      3891      1270  TIP3      H1             21.0019664810       42.9513567438        9.2754218360  SOLV      1287            0.0000000000
      3892      1270  TIP3      H2             20.3722364810       43.2270867438        7.9266118360  SOLV      1287            0.0000000000
      3893      1271  TIP3      OH2            25.5047564810       45.0513167438        8.0585618360  SOLV      1288            0.0000000000
      3894      1271  TIP3      H1             26.1208564810       44.5248567438        8.5679618360  SOLV      1288            0.0000000000
      3895      1271  TIP3      H2             24.9186364810       44.4111867438        7.6549218360  SOLV      1288            0.0000000000
      3896      1272  TIP3      OH2            36.4870664810       41.6881767438       13.5779118360  SOLV      1289            0.0000000000
      3897      1272  TIP3      H1             35.7985264810       42.3462467438       13.4825718360  SOLV      1289            0.0000000000
      3898      1272  TIP3      H2             36.5025264810       41.4909667438       14.5144518360  SOLV      1289            0.0000000000
      3899      1273  TIP3      OH2            22.5383464810       40.0224467438       12.1553518360  SOLV      1290            0.0000000000
      3900      1273  TIP3      H1             22.3195164810       40.5525067438       11.3889518360  SOLV      1290            0.0000000000
      3901      1273  TIP3      H2             21.8704364810       40.2489967438       12.8024918360  SOLV      1290            0.0000000000
      3902      1274  TIP3      OH2            29.9073264810       49.5225567438        5.6992618360  SOLV      1291            0.0000000000
      3903      1274  TIP3      H1             29.6118364810       49.1997867438        4.8479518360  SOLV      1291            0.0000000000
      3904      1274  TIP3      H2             29.5831064810       50.4222267438        5.7405218360  SOLV      1291            0.0000000000
      3905      1275  TIP3      OH2            25.1074864810       47.6980167438       12.4427218360  SOLV      1292            0.0000000000
      3906      1275  TIP3      H1             24.3673964810       48.2961667438       12.5462418360  SOLV      1292            0.0000000000
      3907      1275  TIP3      H2             25.8214364810       48.2519767438       12.1270818360  SOLV      1292            0.0000000000
      3908      1276  TIP3      OH2            33.2142664810       40.5260967438        8.4626918360  SOLV      1293            0.0000000000
      3909      1276  TIP3      H1             32.9990664810       39.7604367438        8.9952918360  SOLV      1293            0.0000000000
      3910      1276  TIP3      H2             33.8700064810       40.9985567438        8.9755418360  SOLV      1293            0.0000000000
      3911      1277  TIP3      OH2            22.1320764810       41.9146267438       10.1075718360  SOLV      1294            0.0000000000
      3912      1277  TIP3      H1             22.7457064810       42.5473867438       10.4808118360  SOLV      1294            0.0000000000
      3913      1277  TIP3      H2             22.6441464810       41.4421267438        9.4512618360  SOLV      1294            0.0000000000
      3914      1278  TIP3      OH2            19.6360064810       49.3331067438        4.0118018360  SOLV      1295            0.0000000000
      3915      1278  TIP3      H1             19.3640964810       49.5622067438        3.1230918360  SOLV      1295            0.0000000000
      3916      1278  TIP3      H2             19.6815764810       50.1709867438        4.4723318360  SOLV      1295            0.0000000000
      3917      1279  TIP3      OH2            33.5616764810       39.2412267438       12.1420418360  SOLV      1296            0.0000000000
      3918      1279  TIP3      H1             32.8255964810       39.8519367438       12.1041718360  SOLV      1296            0.0000000000
      3919      1279  TIP3      H2             34.2450764810       39.6561267438       11.6156818360  SOLV      1296            0.0000000000
      3920      1280  TIP3      OH2            26.5648164810       37.3279567438        9.6078418360  SOLV      1297            0.0000000000
      3921      1280  TIP3      H1             26.4472364810       36.3795567438        9.5536718360  SOLV      1297            0.0000000000
      3922      1280  TIP3      H2             25.7098264810       37.6605667438        9.8809518360  SOLV      1297            0.0000000000
      3923      1281  TIP3      OH2            34.3587664810       49.2035667438       14.3358218360  SOLV      1298            0.0000000000
      3924      1281  TIP3      H1             34.4983964810       48.6118167438       13.5965218360  SOLV      1298            0.0000000000
      3925      1281  TIP3      H2             34.5260464810       50.0761567438       13.9797018360  SOLV      1298            0.0000000000
      3926      1282  TIP3      OH2            28.8313064810       46.1655167438        4.1084218360  SOLV      1299            0.0000000000
      3927      1282  TIP3      H1             28.1198564810       46.7004867438        3.7564718360  SOLV      1299            0.0000000000
      3928      1282  TIP3      H2             29.5222664810       46.2207267438        3.4483118360  SOLV      1299            0.0000000000
      3929      1283  TIP3      OH2            28.8852264810       44.6229467438        1.1469218360  SOLV      1300            0.0000000000
      3930      1283  TIP3      H1             29.5862164810       44.6456367438        1.7983218360  SOLV      1300            0.0000000000
      3931      1283  TIP3      H2             29.1875164810       43.9949167438        0.4908518360  SOLV      1300            0.0000000000
      3932      1284  TIP3      OH2            36.2006964810       45.5433667438       12.4018618360  SOLV      1301            0.0000000000
      3933      1284  TIP3      H1             35.5481064810       46.2379267438       12.4909518360  SOLV      1301            0.0000000000
      3934      1284  TIP3      H2             36.6657264810       45.7534567438       11.5920218360  SOLV      1301            0.0000000000
      3935      1285  TIP3      OH2            32.2370764810       46.3748467438        5.0600118360  SOLV      1302            0.0000000000
      3936      1285  TIP3      H1             31.5051764810       46.6032167438        5.6330718360  SOLV      1302            0.0000000000
      3937      1285  TIP3      H2             32.6842964810       45.6611167438        5.5147618360  SOLV      1302            0.0000000000
      3938      1286  TIP3      OH2            32.1344264810       44.5491067438       14.1277118360  SOLV      1303            0.0000000000
      3939      1286  TIP3      H1             32.2143364810       45.3125467438       14.6995618360  SOLV      1303            0.0000000000
      3940      1286  TIP3      H2             31.5331964810       44.8283467438       13.4372218360  SOLV      1303            0.0000000000
      3941      1287  TIP3      OH2            23.8824464810       47.0054667438        6.9425118360  SOLV      1304            0.0000000000
      3942      1287  TIP3      H1             23.5519664810       46.6348067438        6.1242118360  SOLV      1304            0.0000000000
      3943      1287  TIP3      H2             24.4708564810       46.3348667438        7.2893418360  SOLV      1304            0.0000000000
      3944      1288  TIP3      OH2            24.2489964810       45.7740267438       10.5760118360  SOLV      1305            0.0000000000
      3945      1288  TIP3      H1             24.8142464810       45.8954467438        9.8131318360  SOLV      1305            0.0000000000
      3946      1288  TIP3      H2             24.5678864810       46.4115267438       11.2148618360  SOLV      1305            0.0000000000
      3947      1289  TIP3      OH2            31.1080264810       45.5371367438        2.7451318360  SOLV      1306            0.0000000000
      3948      1289  TIP3      H1             31.6875764810       45.6871667438        3.4920218360  SOLV      1306            0.0000000000
      3949      1289  TIP3      H2             31.5220264810       46.0078767438        2.0217718360  SOLV      1306            0.0000000000
      3950      1290  TIP3      OH2            22.0490564810       46.3714067438       14.5217718360  SOLV      1307            0.0000000000
      3951      1290  TIP3      H1             22.1193764810       47.0220867438       15.2202718360  SOLV      1307            0.0000000000
      3952      1290  TIP3      H2             21.1582764810       46.4741567438       14.1868618360  SOLV      1307            0.0000000000
      3953      1291  TIP3      OH2            34.8068664810       37.2871767438        2.5581018360  SOLV      1308            0.0000000000
      3954      1291  TIP3      H1             33.9069364810       37.4260767438        2.8531618360  SOLV      1308            0.0000000000
      3955      1291  TIP3      H2             35.0587064810       38.1186367438        2.1562718360  SOLV      1308            0.0000000000
      3956      1292  TIP3      OH2            22.8727164810       46.0748967438        4.5317918360  SOLV      1309            0.0000000000
      3957      1292  TIP3      H1             22.5808464810       46.8430667438        4.0409218360  SOLV      1309            0.0000000000
      3958      1292  TIP3      H2             22.1982364810       45.4155167438        4.3689318360  SOLV      1309            0.0000000000
      3959      1293  TIP3      OH2            18.9657264810       48.4378167438       13.3467718360  SOLV      1310            0.0000000000
      3960      1293  TIP3      H1             18.4645664810       48.4097567438       12.5317418360  SOLV      1310            0.0000000000
      3961      1293  TIP3      H2             18.9710964810       47.5321367438       13.6565018360  SOLV      1310            0.0000000000
      3962      1294  TIP3      OH2            34.0658264810       43.3774167438       16.3933818360  SOLV      1311            0.0000000000
      3963      1294  TIP3      H1             33.6585064810       43.8579767438       15.6727118360  SOLV      1311            0.0000000000
      3964      1294  TIP3      H2             34.1063964810       42.4720167438       16.0854618360  SOLV      1311            0.0000000000
      3965      1295  TIP3      OH2            21.2147764810       49.7613567438       14.3900518360  SOLV      1312            0.0000000000
      3966      1295  TIP3      H1             21.4309064810       49.3999167438       15.2496318360  SOLV      1312            0.0000000000
      3967      1295  TIP3      H2             20.3592464810       49.3867367438       14.1804018360  SOLV      1312            0.0000000000
      3968      1296  TIP3      OH2            23.8335764810       38.2314067438       10.3854718360  SOLV      1313            0.0000000000
      3969      1296  TIP3      H1             22.9719464810       38.1442267438        9.9777618360  SOLV      1313            0.0000000000
      3970      1296  TIP3      H2             23.8111464810       39.0874167438       10.8132318360  SOLV      1313            0.0000000000
      3971      1297  TIP3      OH2            28.4963564810       37.9534467438       13.7601718360  SOLV      1314            0.0000000000
      3972      1297  TIP3      H1             28.9166664810       37.5381567438       14.5132318360  SOLV      1314            0.0000000000
      3973      1297  TIP3      H2             27.5633164810       37.7747767438       13.8773718360  SOLV      1314            0.0000000000
      3974      1298  TIP3      OH2            31.8228464810       41.7089667438       14.6136218360  SOLV      1315            0.0000000000
      3975      1298  TIP3      H1             31.3087964810       41.5831867438       15.4112218360  SOLV      1315            0.0000000000
      3976      1298  TIP3      H2             31.6673164810       42.6212767438       14.3692418360  SOLV      1315            0.0000000000
      3977      1299  TIP3      OH2            32.5853364810       46.5699667438        0.3749218360  SOLV      1316            0.0000000000
      3978      1299  TIP3      H1             32.6274164810       46.3473567438       -0.5550781640  SOLV      1316            0.0000000000
      3979      1299  TIP3      H2             33.4345464810       46.9686767438        0.5649118360  SOLV      1316            0.0000000000
      3980      1300  TIP3      OH2            28.1580864810       40.4457867438        1.0452518360  SOLV      1317            0.0000000000
      3981      1300  TIP3      H1             27.9045664810       40.4649467438        1.9680618360  SOLV      1317            0.0000000000
      3982      1300  TIP3      H2             27.9012964810       39.5743267438        0.7438718360  SOLV      1317            0.0000000000
      3983      1301  TIP3      OH2            23.9245864810       43.1968567438       11.4804918360  SOLV      1318            0.0000000000
      3984      1301  TIP3      H1             23.2827964810       43.1565867438       12.1895018360  SOLV      1318            0.0000000000
      3985      1301  TIP3      H2             23.9617864810       44.1233267438       11.2427918360  SOLV      1318            0.0000000000
      3986      1302  TIP3      OH2            23.9214964810       43.4178667438        6.3924918360  SOLV      1319            0.0000000000
      3987      1302  TIP3      H1             23.0287864810       43.0774767438        6.3338718360  SOLV      1319            0.0000000000
      3988      1302  TIP3      H2             24.3721564810       43.0409567438        5.6368118360  SOLV      1319            0.0000000000
      3989      1303  TIP3      OH2            29.4570464810       43.8338967438        5.2095718360  SOLV      1320            0.0000000000
      3990      1303  TIP3      H1             29.0480764810       44.6487567438        4.9180518360  SOLV      1320            0.0000000000
      3991      1303  TIP3      H2             30.1776664810       43.6939067438        4.5952818360  SOLV      1320            0.0000000000
      3992      1304  TIP3      OH2            28.5592064810       44.0095367438       16.6976418360  SOLV      1321            0.0000000000
      3993      1304  TIP3      H1             27.9965864810       43.3046967438       17.0184218360  SOLV      1321            0.0000000000
      3994      1304  TIP3      H2             29.3855464810       43.8887267438       17.1654018360  SOLV      1321            0.0000000000
      3995      1305  TIP3      OH2            30.4618164810       43.2799367438        8.0235418360  SOLV      1322            0.0000000000
      3996      1305  TIP3      H1             30.2662664810       43.8856167438        7.3086018360  SOLV      1322            0.0000000000
      3997      1305  TIP3      H2             30.6430764810       42.4464567438        7.5891718360  SOLV      1322            0.0000000000
      3998      1306  TIP3      OH2            21.6746364810       43.5172067438       13.3476918360  SOLV      1323            0.0000000000
      3999      1306  TIP3      H1             21.6365764810       43.9173667438       14.2164018360  SOLV      1323            0.0000000000
      4000      1306  TIP3      H2             21.1837464810       42.7004467438       13.4379818360  SOLV      1323            0.0000000000
      4001      1307  TIP3      OH2            25.0403764810       40.8914367438        0.1462918360  SOLV      1324            0.0000000000
      4002      1307  TIP3      H1             24.6094464810       40.4464467438        0.8760318360  SOLV      1324            0.0000000000
      4003      1307  TIP3      H2             24.3222464810       41.2630667438       -0.3659581640  SOLV      1324            0.0000000000
      4004      1308  TIP3      OH2            18.2827164810       40.6333867438        7.1981618360  SOLV      1325            0.0000000000
      4005      1308  TIP3      H1             18.9134864810       40.6045967438        7.9175518360  SOLV      1325            0.0000000000
      4006      1308  TIP3      H2             18.7321464810       40.2082567438        6.4677518360  SOLV      1325            0.0000000000
      4007      1309  TIP3      OH2            19.5569264810       41.3795867438        2.6222018360  SOLV      1326            0.0000000000
      4008      1309  TIP3      H1             20.0310964810       41.9705767438        2.0372918360  SOLV      1326            0.0000000000
      4009      1309  TIP3      H2             18.8395664810       41.9098767438        2.9692118360  SOLV      1326            0.0000000000
      4010      1310  TIP3      OH2            29.7257364810       44.9180667438       12.6947818360  SOLV      1327            0.0000000000
      4011      1310  TIP3      H1             30.0492164810       44.2870367438       12.0518318360  SOLV      1327            0.0000000000
      4012      1310  TIP3      H2             29.2856664810       44.3832867438       13.3555218360  SOLV      1327            0.0000000000
      4013      1311  TIP3      OH2            26.5030264810       40.8456167438        7.4789018360  SOLV      1328            0.0000000000
      4014      1311  TIP3      H1             25.5921364810       40.9022967438        7.7675018360  SOLV      1328            0.0000000000
      4015      1311  TIP3      H2             27.0083164810       40.7851667438        8.2896218360  SOLV      1328            0.0000000000
      4016      1312  TIP3      OH2            21.3313664810       42.4742467438        6.3056618360  SOLV      1329            0.0000000000
      4017      1312  TIP3      H1             20.4421664810       42.5737967438        5.9656218360  SOLV      1329            0.0000000000
      4018      1312  TIP3      H2             21.6278564810       41.6325467438        5.9594518360  SOLV      1329            0.0000000000
      4019      1313  TIP3      OH2            24.9845464810       42.4745067438        3.9621218360  SOLV      1330            0.0000000000
      4020      1313  TIP3      H1             25.9160964810       42.6035067438        4.1404318360  SOLV      1330            0.0000000000
      4021      1313  TIP3      H2             24.7695764810       43.1439367438        3.3125918360  SOLV      1330            0.0000000000
      4022      1314  TIP3      OH2            30.9082164810       40.0802467438       10.7430818360  SOLV      1331            0.0000000000
      4023      1314  TIP3      H1             30.2313764810       40.2115567438       11.4070518360  SOLV      1331            0.0000000000
      4024      1314  TIP3      H2             30.4227064810       39.9251967438        9.9328518360  SOLV      1331            0.0000000000
      4025      1315  TIP3      OH2            23.6585664810       43.6687267438        1.5287318360  SOLV      1332            0.0000000000
      4026      1315  TIP3      H1             23.1160764810       43.2891067438        0.8374918360  SOLV      1332            0.0000000000
      4027      1315  TIP3      H2             24.4920564810       43.8631967438        1.1001418360  SOLV      1332            0.0000000000
      4028      1316  TIP3      OH2            21.7937064810       48.2259167438       16.6278918360  SOLV      1333            0.0000000000
      4029      1316  TIP3      H1             22.5259464810       48.4805067438       17.1893418360  SOLV      1333            0.0000000000
      4030      1316  TIP3      H2             21.0135764810       48.4304567438       17.1434318360  SOLV      1333            0.0000000000
      4031      1317  TIP3      OH2            27.8229964810       43.6329167438        9.3658618360  SOLV      1334            0.0000000000
      4032      1317  TIP3      H1             28.3873364810       43.0865767438        8.8188218360  SOLV      1334            0.0000000000
      4033      1317  TIP3      H2             27.6753364810       43.1111067438       10.1546218360  SOLV      1334            0.0000000000
      4034      1318  TIP3      OH2            22.8249664810       39.7695267438        5.7843418360  SOLV      1335            0.0000000000
      4035      1318  TIP3      H1             22.5079164810       38.8670567438        5.7488818360  SOLV      1335            0.0000000000
      4036      1318  TIP3      H2             23.6063764810       39.7712667438        5.2315018360  SOLV      1335            0.0000000000
      4037      1319  TIP3      OH2            26.4495864810       42.0215267438       11.7799018360  SOLV      1336            0.0000000000
      4038      1319  TIP3      H1             25.6141164810       42.4754767438       11.8901418360  SOLV      1336            0.0000000000
      4039      1319  TIP3      H2             26.9736464810       42.2973767438       12.5318918360  SOLV      1336            0.0000000000
      4040      1320  TIP3      OH2            26.9938464810       48.2342967438        3.4645418360  SOLV      1337            0.0000000000
      4041      1320  TIP3      H1             26.2489464810       47.7268267438        3.1423318360  SOLV      1337            0.0000000000
      4042      1320  TIP3      H2             26.8595664810       48.2830967438        4.4110218360  SOLV      1337            0.0000000000
      4043      1321  TIP3      OH2            34.1437364810       47.3671167438       12.2513018360  SOLV      1338            0.0000000000
      4044      1321  TIP3      H1             34.7856164810       47.8237467438       11.7075218360  SOLV      1338            0.0000000000
      4045      1321  TIP3      H2             33.3134264810       47.4803567438       11.7887118360  SOLV      1338            0.0000000000
      4046      1322  TIP3      OH2            30.8915264810       41.0482867438        1.6638018360  SOLV      1339            0.0000000000
      4047      1322  TIP3      H1             29.9529464810       41.1598467438        1.5126818360  SOLV      1339            0.0000000000
      4048      1322  TIP3      H2             31.1887364810       41.9049767438        1.9703718360  SOLV      1339            0.0000000000
      4049      1323  TIP3      OH2            28.5130564810       48.4186267438       14.7014518360  SOLV      1340            0.0000000000
      4050      1323  TIP3      H1             28.1676664810       48.0368667438       15.5084118360  SOLV      1340            0.0000000000
      4051      1323  TIP3      H2             28.3130664810       49.3519867438       14.7727418360  SOLV      1340            0.0000000000
      4052      1324  TIP3      OH2            31.6098764810       42.9155567438        3.3245418360  SOLV      1341            0.0000000000
      4053      1324  TIP3      H1             32.5017764810       42.7780567438        3.6436618360  SOLV      1341            0.0000000000
      4054      1324  TIP3      H2             31.6662364810       43.7061667438        2.7878918360  SOLV      1341            0.0000000000
      4055      1325  TIP3      OH2            22.1186764810       47.5292967438        9.2343318360  SOLV      1342            0.0000000000
      4056      1325  TIP3      H1             22.8633964810       47.5268667438        8.6329818360  SOLV      1342            0.0000000000
      4057      1325  TIP3      H2             22.1963364810       46.7056767438        9.7158418360  SOLV      1342            0.0000000000
      4058      1326  TIP3      OH2            29.1192564810       49.6927267438        2.4900018360  SOLV      1343            0.0000000000
      4059      1326  TIP3      H1             28.8240964810       50.5195167438        2.8714818360  SOLV      1343            0.0000000000
      4060      1326  TIP3      H2             28.4162564810       49.0734167438        2.6861418360  SOLV      1343            0.0000000000
      4061      1327  TIP3      OH2            19.1266464810       45.9899867438       14.5491818360  SOLV      1344            0.0000000000
      4062      1327  TIP3      H1             19.3495064810       45.5719467438       15.3809318360  SOLV      1344            0.0000000000
      4063      1327  TIP3      H2             18.5246564810       45.3774867438       14.1264618360  SOLV      1344            0.0000000000
      4064      1328  TIP3      OH2            26.1431364810       45.5069767438       16.7621518360  SOLV      1345            0.0000000000
      4065      1328  TIP3      H1             25.8472164810       45.3412767438       15.8670618360  SOLV      1345            0.0000000000
      4066      1328  TIP3      H2             27.0746564810       45.2870067438       16.7515418360  SOLV      1345            0.0000000000
      4067      1329  TIP3      OH2            36.4947464810       43.1249667438        3.0192118360  SOLV      1346            0.0000000000
      4068      1329  TIP3      H1             35.9403764810       42.7287667438        2.3469618360  SOLV      1346            0.0000000000
      4069      1329  TIP3      H2             36.5951064810       44.0354867438        2.7415418360  SOLV      1346            0.0000000000
      4070      1330  TIP3      OH2            36.4579464810       48.9251367438       15.8563618360  SOLV      1347            0.0000000000
      4071      1330  TIP3      H1             35.6067964810       49.1635167438       15.4890018360  SOLV      1347            0.0000000000
      4072      1330  TIP3      H2             37.0482864810       48.9084567438       15.1030718360  SOLV      1347            0.0000000000
      4073      1331  TIP3      OH2            31.9503064810       46.7189567438       10.5056118360  SOLV      1348            0.0000000000
      4074      1331  TIP3      H1             31.0219964810       46.4871467438       10.4785418360  SOLV      1348            0.0000000000
      4075      1331  TIP3      H2             32.4014164810       45.9419367438       10.1754918360  SOLV      1348            0.0000000000
      4076      1332  TIP3      OH2            20.2483864810       45.9095267438        1.2257218360  SOLV      1349            0.0000000000
      4077      1332  TIP3      H1             20.8643764810       46.5362467438        1.6052018360  SOLV      1349            0.0000000000
      4078      1332  TIP3      H2             19.3866464810       46.2255067438        1.4973718360  SOLV      1349            0.0000000000
      4079      1333  TIP3      OH2            25.9208464810       48.7101067438        6.2149118360  SOLV      1350            0.0000000000
      4080      1333  TIP3      H1             25.6798464810       49.6355467438        6.2564418360  SOLV      1350            0.0000000000
      4081      1333  TIP3      H2             25.1802064810       48.2512367438        6.6113018360  SOLV      1350            0.0000000000
      4082      1334  TIP3      OH2            29.9795864810       48.9585367438       12.2305818360  SOLV      1351            0.0000000000
      4083      1334  TIP3      H1             29.5537164810       48.7307067438       13.0569818360  SOLV      1351            0.0000000000
      4084      1334  TIP3      H2             30.5601664810       48.2197167438       12.0481118360  SOLV      1351            0.0000000000
      4085      1335  TIP3      OH2            32.1824764810       49.8875867438        1.3044818360  SOLV      1352            0.0000000000
      4086      1335  TIP3      H1             32.5357864810       49.5075667438        2.1088318360  SOLV      1352            0.0000000000
      4087      1335  TIP3      H2             31.2338264810       49.7940667438        1.3914118360  SOLV      1352            0.0000000000
      4088      1336  TIP3      OH2            20.7605964810       40.7432567438       14.1073218360  SOLV      1353            0.0000000000
      4089      1336  TIP3      H1             19.8678264810       41.0817967438       14.0397218360  SOLV      1353            0.0000000000
      4090      1336  TIP3      H2             20.6618764810       39.8878667438       14.5254018360  SOLV      1353            0.0000000000
      4091      1337  TIP3      OH2            33.0484064810       48.5597867438        3.5312718360  SOLV      1354            0.0000000000
      4092      1337  TIP3      H1             32.7711664810       47.8317167438        4.0873818360  SOLV      1354            0.0000000000
      4093      1337  TIP3      H2             33.9757064810       48.6789867438        3.7365318360  SOLV      1354            0.0000000000
      4094      1338  TIP3      OH2            21.6634264810       47.8219067438        2.7182818360  SOLV      1355            0.0000000000
      4095      1338  TIP3      H1             20.9773564810       48.1741567438        3.2852518360  SOLV      1355            0.0000000000
      4096      1338  TIP3      H2             22.1862164810       48.5848667438        2.4717118360  SOLV      1355            0.0000000000
      4097      1339  TIP3      OH2            29.4949364810       40.4842867438       12.9971818360  SOLV      1356            0.0000000000
      4098      1339  TIP3      H1             30.1937264810       40.5581567438       13.6471518360  SOLV      1356            0.0000000000
      4099      1339  TIP3      H2             29.1140764810       39.6197867438       13.1514718360  SOLV      1356            0.0000000000
      4100      1340  TIP3      OH2            30.2794264810       40.1364567438        4.0944118360  SOLV      1357            0.0000000000
      4101      1340  TIP3      H1             30.4992564810       40.6079967438        3.2909518360  SOLV      1357            0.0000000000
      4102      1340  TIP3      H2             30.8378264810       40.5307167438        4.7644718360  SOLV      1357            0.0000000000
      4103      1341  TIP3      OH2            27.4794164810       41.8643367438        4.9292518360  SOLV      1358            0.0000000000
      4104      1341  TIP3      H1             28.2916764810       42.3686567438        4.9754218360  SOLV      1358            0.0000000000
      4105      1341  TIP3      H2             27.2347164810       41.7193067438        5.8432118360  SOLV      1358            0.0000000000
      4106      1342  TIP3      OH2            28.0150564810       42.8506067438       14.1139118360  SOLV      1359            0.0000000000
      4107      1342  TIP3      H1             28.1340864810       43.4241467438       14.8709518360  SOLV      1359            0.0000000000
      4108      1342  TIP3      H2             28.6705164810       42.1625467438       14.2286918360  SOLV      1359            0.0000000000
      4109      1343  TIP3      OH2            28.3630864810       38.9456367438        5.8673618360  SOLV      1360            0.0000000000
      4110      1343  TIP3      H1             28.0164364810       39.5626967438        6.5117918360  SOLV      1360            0.0000000000
      4111      1343  TIP3      H2             29.0217764810       39.4462067438        5.3859118360  SOLV      1360            0.0000000000
      4112      1344  TIP3      OH2            24.0207864810       40.0085767438        2.5546118360  SOLV      1361            0.0000000000
      4113      1344  TIP3      H1             23.9372664810       40.8968867438        2.9012518360  SOLV      1361            0.0000000000
      4114      1344  TIP3      H2             24.9108164810       39.7432467438        2.7862918360  SOLV      1361            0.0000000000
      4115      1345  TIP3      OH2            34.2196364810       40.7576367438       14.9488818360  SOLV      1362            0.0000000000
      4116      1345  TIP3      H1             33.3032164810       41.0198067438       14.8612518360  SOLV      1362            0.0000000000
      4117      1345  TIP3      H2             34.5551364810       40.7545367438       14.0524118360  SOLV      1362            0.0000000000
      4118      1346  TIP3      OH2            32.8217364810       44.5077367438        9.0446118360  SOLV      1363            0.0000000000
      4119      1346  TIP3      H1             32.0241764810       44.0927567438        8.7161118360  SOLV      1363            0.0000000000
      4120      1346  TIP3      H2             33.2668464810       43.8171067438        9.5356618360  SOLV      1363            0.0000000000
      4121      1347  TIP3      OH2            20.5952364810       43.1000967438        0.7310018360  SOLV      1364            0.0000000000
      4122      1347  TIP3      H1             20.5504964810       44.0394067438        0.9097018360  SOLV      1364            0.0000000000
      4123      1347  TIP3      H2             19.7075564810       42.8645867438        0.4612118360  SOLV      1364            0.0000000000
      4124      1348  TIP3      OH2            21.4034364810       37.8817567438        9.4041018360  SOLV      1365            0.0000000000
      4125      1348  TIP3      H1             21.1744164810       37.9410067438        8.4766018360  SOLV      1365            0.0000000000
      4126      1348  TIP3      H2             20.9607764810       37.0903067438        9.7105118360  SOLV      1365            0.0000000000
      4127      1349  TIP3      OH2            19.5290864810       48.2452467438       17.8489118360  SOLV      1366            0.0000000000
      4128      1349  TIP3      H1             19.6731364810       47.3433167438       17.5625818360  SOLV      1366            0.0000000000
      4129      1349  TIP3      H2             18.7568264810       48.5314567438       17.3611418360  SOLV      1366            0.0000000000
      4130      1350  TIP3      OH2            26.1846964810       48.2150567438       17.2815518360  SOLV      1367            0.0000000000
      4131      1350  TIP3      H1             25.8560764810       48.4858667438       16.4242918360  SOLV      1367            0.0000000000
      4132      1350  TIP3      H2             26.3365164810       47.2740367438       17.1940518360  SOLV      1367            0.0000000000
      4133      1351  TIP3      OH2            29.2227964810       49.6359867438       -0.2828281640  SOLV      1368            0.0000000000
      4134      1351  TIP3      H1             28.9542064810       49.8161967438        0.6180618360  SOLV      1368            0.0000000000
      4135      1351  TIP3      H2             29.0163564810       48.7106067438       -0.4142481640  SOLV      1368            0.0000000000
      4136      1352  TIP3      OH2            31.9192164810       48.1307867438       14.6647818360  SOLV      1369            0.0000000000
      4137      1352  TIP3      H1             32.6646964810       48.7191567438       14.5451818360  SOLV      1369            0.0000000000
      4138      1352  TIP3      H2             31.1618964810       48.7127567438       14.7280918360  SOLV      1369            0.0000000000
      4139      1353  TIP3      OH2            20.3617364810       45.4455767438       17.2688418360  SOLV      1370            0.0000000000
      4140      1353  TIP3      H1             20.7698564810       44.5882367438       17.1479018360  SOLV      1370            0.0000000000
      4141      1353  TIP3      H2             20.1014964810       45.4597067438       18.1898718360  SOLV      1370            0.0000000000
      4142      1354  TIP3      OH2            25.0198364810       46.5614367438        2.2871718360  SOLV      1371            0.0000000000
      4143      1354  TIP3      H1             24.5600364810       46.0772667438        2.9730218360  SOLV      1371            0.0000000000
      4144      1354  TIP3      H2             25.2747064810       45.8929767438        1.6512218360  SOLV      1371            0.0000000000
      4145      1355  TIP3      OH2            24.3087664810       44.4541467438       14.6431318360  SOLV      1372            0.0000000000
      4146      1355  TIP3      H1             23.6903764810       45.1288067438       14.9236018360  SOLV      1372            0.0000000000
      4147      1355  TIP3      H2             24.6528864810       44.7755367438       13.8097518360  SOLV      1372            0.0000000000
      4148      1356  TIP3      OH2            26.0908764810       44.8046167438        0.5494918360  SOLV      1373            0.0000000000
      4149      1356  TIP3      H1             25.9103764810       44.6497367438       -0.3776781640  SOLV      1373            0.0000000000
      4150      1356  TIP3      H2             27.0409264810       44.9124867438        0.5942818360  SOLV      1373            0.0000000000
      4151      1357  TIP3      OH2            29.3285864810       46.9256767438       17.9206118360  SOLV      1374            0.0000000000
      4152      1357  TIP3      H1             30.2817064810       47.0095867438       17.8932118360  SOLV      1374            0.0000000000
      4153      1357  TIP3      H2             29.1680464810       46.2138567438       18.5401018360  SOLV      1374            0.0000000000
      4154      1358  TIP3      OH2            24.6481364810       41.8092267438       15.7254418360  SOLV      1375            0.0000000000
      4155      1358  TIP3      H1             24.7982264810       41.0803567438       15.1234118360  SOLV      1375            0.0000000000
      4156      1358  TIP3      H2             24.6503764810       42.5863967438       15.1666618360  SOLV      1375            0.0000000000
      4157      1359  TIP3      OH2            25.0607064810       40.1788067438       13.2181818360  SOLV      1376            0.0000000000
      4158      1359  TIP3      H1             25.5964564810       40.6304767438       12.5661118360  SOLV      1376            0.0000000000
      4159      1359  TIP3      H2             24.2086664810       40.0707867438       12.7955918360  SOLV      1376            0.0000000000
      4160      1360  TIP3      OH2            26.6425464810       45.6184267438       13.4577018360  SOLV      1377            0.0000000000
      4161      1360  TIP3      H1             27.3930264810       45.4621767438       12.8844818360  SOLV      1377            0.0000000000
      4162      1360  TIP3      H2             26.3033764810       46.4700867438       13.1822518360  SOLV      1377            0.0000000000
      4163      1361  TIP3      OH2            31.0581664810       43.4336067438       18.4862318360  SOLV      1378            0.0000000000
      4164      1361  TIP3      H1             31.2502964810       42.5025467438       18.3746818360  SOLV      1378            0.0000000000
      4165      1361  TIP3      H2             31.9157964810       43.8585567438       18.4757718360  SOLV      1378            0.0000000000
      4166      1362  TIP3      OH2            32.3748864810       46.2221267438       16.5635018360  SOLV      1379            0.0000000000
      4167      1362  TIP3      H1             32.0933864810       46.9315867438       15.9858818360  SOLV      1379            0.0000000000
      4168      1362  TIP3      H2             33.3173164810       46.1494267438       16.4126218360  SOLV      1379            0.0000000000
      4169      1363  TIP3      OH2            23.1267664810       43.0075767438       17.6370018360  SOLV      1380            0.0000000000
      4170      1363  TIP3      H1             22.3596664810       42.4750567438       17.4267618360  SOLV      1380            0.0000000000
      4171      1363  TIP3      H2             23.8056664810       42.6976167438       17.0376318360  SOLV      1380            0.0000000000
      4172      1364  TIP3      OH2            25.8662564810       37.6353767438       13.6495418360  SOLV      1381            0.0000000000
      4173      1364  TIP3      H1             25.7682164810       38.5816967438       13.5441618360  SOLV      1381            0.0000000000
      4174      1364  TIP3      H2             25.1238764810       37.2627567438       13.1738918360  SOLV      1381            0.0000000000
      4175      1365  TIP3      OH2            27.1303064810       41.9569167438       17.2133818360  SOLV      1382            0.0000000000
      4176      1365  TIP3      H1             26.8948464810       41.7375867438       18.1148718360  SOLV      1382            0.0000000000
      4177      1365  TIP3      H2             26.3469964810       41.7500367438       16.7036318360  SOLV      1382            0.0000000000
      4178      1366  TIP3      OH2            29.8459664810       41.0842667438       16.2887318360  SOLV      1383            0.0000000000
      4179      1366  TIP3      H1             28.8985064810       41.1162367438       16.4210618360  SOLV      1383            0.0000000000
      4180      1366  TIP3      H2             30.1586364810       40.4589767438       16.9425518360  SOLV      1383            0.0000000000
      4181      1367  TIP3      OH2            31.4801164810       39.7183767438       18.2939218360  SOLV      1384            0.0000000000
      4182      1367  TIP3      H1             31.3832964810       38.7661067438       18.2881118360  SOLV      1384            0.0000000000
      4183      1367  TIP3      H2             31.1584264810       39.9870567438       19.1544718360  SOLV      1384            0.0000000000
      4184      1368  TIP3      OH2            21.3070464810       40.9279567438       17.3414718360  SOLV      1385            0.0000000000
      4185      1368  TIP3      H1             21.5187864810       40.2215667438       16.7312218360  SOLV      1385            0.0000000000
      4186      1368  TIP3      H2             21.1957964810       40.4905567438       18.1855918360  SOLV      1385            0.0000000000
      4187      1369  TIP3      OH2            26.0880664810       36.9291167438       16.3208218360  SOLV      1386            0.0000000000
      4188      1369  TIP3      H1             26.7999064810       36.2893367438       16.3067318360  SOLV      1386            0.0000000000
      4189      1369  TIP3      H2             25.9871064810       37.1959467438       15.4071318360  SOLV      1386            0.0000000000
      4190      1370  TIP3      OH2            26.4418164810       38.6119567438       18.3744518360  SOLV      1387            0.0000000000
      4191      1370  TIP3      H1             26.3100364810       38.1363367438       17.5543018360  SOLV      1387            0.0000000000
      4192      1370  TIP3      H2             25.8425564810       39.3563167438       18.3191618360  SOLV      1387            0.0000000000
      4193      1371  TIP3      OH2            35.9389864810       48.0278467438        3.9703418360  SOLV      1388            0.0000000000
      4194      1371  TIP3      H1             36.7891264810       48.4489367438        4.0975018360  SOLV      1388            0.0000000000
      4195      1371  TIP3      H2             35.9444964810       47.2878567438        4.5774818360  SOLV      1388            0.0000000000
      4196      1372  TIP3      OH2            36.3335464810       46.0815867438        5.7939118360  SOLV      1389            0.0000000000
      4197      1372  TIP3      H1             35.6070064810       45.6018467438        6.1916718360  SOLV      1389            0.0000000000
      4198      1372  TIP3      H2             36.9148764810       46.2870567438        6.5260718360  SOLV      1389            0.0000000000
      4199      1373  TIP3      OH2            36.0926664810       48.8663367438       10.7416718360  SOLV      1390            0.0000000000
      4200      1373  TIP3      H1             36.9260864810       48.4883367438       10.4610318360  SOLV      1390            0.0000000000
      4201      1373  TIP3      H2             36.2046964810       49.8094567438       10.6225818360  SOLV      1390            0.0000000000
      4202      1374  TIP3      OH2            36.6018564810       45.9824367438        2.1850418360  SOLV      1391            0.0000000000
      4203      1374  TIP3      H1             36.0799664810       46.3388467438        1.4661318360  SOLV      1391            0.0000000000
      4204      1374  TIP3      H2             36.5687764810       46.6572167438        2.8631318360  SOLV      1391            0.0000000000
      4205      1375  TIP3      OH2            34.9507564810       43.2219967438        0.7357518360  SOLV      1392            0.0000000000
      4206      1375  TIP3      H1             35.0471964810       43.8886967438        0.0557218360  SOLV      1392            0.0000000000
      4207      1375  TIP3      H2             34.8107164810       42.4066267438        0.2543018360  SOLV      1392            0.0000000000
      4208      1376  TIP3      OH2            34.1202264810       44.6022367438        6.3567818360  SOLV      1393            0.0000000000
      4209      1376  TIP3      H1             33.9701064810       43.6570967438        6.3365618360  SOLV      1393            0.0000000000
      4210      1376  TIP3      H2             33.7666764810       44.8833767438        7.2006918360  SOLV      1393            0.0000000000
      4211      1377  TIP3      OH2            19.1554664810       46.6804567438       10.3671618360  SOLV      1394            0.0000000000
      4212      1377  TIP3      H1             19.3397564810       46.5986267438        9.4314518360  SOLV      1394            0.0000000000
      4213      1377  TIP3      H2             20.0047564810       46.5561567438       10.7908018360  SOLV      1394            0.0000000000
      4214      1378  TIP3      OH2            34.9765164810       46.5725667438       15.9956118360  SOLV      1395            0.0000000000
      4215      1378  TIP3      H1             35.5592464810       45.8377967438       16.1873318360  SOLV      1395            0.0000000000
      4216      1378  TIP3      H2             35.5404464810       47.3445967438       16.0421918360  SOLV      1395            0.0000000000
      4217      1379  TIP3      OH2            36.4732264810       44.4751467438       16.6801518360  SOLV      1396            0.0000000000
      4218      1379  TIP3      H1             35.6098964810       44.0963567438       16.5146218360  SOLV      1396            0.0000000000
      4219      1379  TIP3      H2             37.0775964810       43.7366267438       16.6057318360  SOLV      1396            0.0000000000
      4220      1380  TIP3      OH2            34.1981364810       40.6299767438       -0.1466981640  SOLV      1397            0.0000000000
      4221      1380  TIP3      H1             34.8087164810       40.2586567438        0.4901218360  SOLV      1397            0.0000000000
      4222      1380  TIP3      H2             33.3612864810       40.2086667438        0.0493018360  SOLV      1397            0.0000000000
      4223      1381  TIP3      OH2            33.8307064810       42.1848167438        4.8192918360  SOLV      1398            0.0000000000
      4224      1381  TIP3      H1             34.1104164810       41.2778567438        4.9434618360  SOLV      1398            0.0000000000
      4225      1381  TIP3      H2             34.5898764810       42.6189667438        4.4302118360  SOLV      1398            0.0000000000
      4226      1382  TIP3      OH2            34.4425364810       42.7665567438       10.2551818360  SOLV      1399            0.0000000000
      4227      1382  TIP3      H1             35.3753364810       42.9785467438       10.2207818360  SOLV      1399            0.0000000000
      4228      1382  TIP3      H2             34.2072864810       42.8677667438       11.1774818360  SOLV      1399            0.0000000000
      4229      1383  TIP3      OH2            34.4717264810       43.5030867438       13.0311218360  SOLV      1400            0.0000000000
      4230      1383  TIP3      H1             33.6288564810       43.7711267438       13.3971018360  SOLV      1400            0.0000000000
      4231      1383  TIP3      H2             34.9141564810       44.3252767438       12.8202318360  SOLV      1400            0.0000000000
      4232      1384  TIP3      OH2            18.7529464810       41.9509567438       16.5080418360  SOLV      1401            0.0000000000
      4233      1384  TIP3      H1             19.6724364810       41.8287867438       16.7443518360  SOLV      1401            0.0000000000
      4234      1384  TIP3      H2             18.3033964810       41.2009267438       16.8973918360  SOLV      1401            0.0000000000
      4235      1385  TIP3      OH2            36.7548864810       37.4831067438       18.3846218360  SOLV      1402            0.0000000000
      4236      1385  TIP3      H1             37.1045864810       36.8294567438       17.7790918360  SOLV      1402            0.0000000000
      4237      1385  TIP3      H2             36.9018364810       38.3205167438       17.9448818360  SOLV      1402            0.0000000000
      4238      1386  TIP3      OH2            34.4441864810       39.4477467438        4.8674918360  SOLV      1403            0.0000000000
      4239      1386  TIP3      H1             34.6266864810       38.9988967438        5.6929918360  SOLV      1403            0.0000000000
      4240      1386  TIP3      H2             33.8444764810       38.8631867438        4.4039518360  SOLV      1403            0.0000000000
      4241      1387  TIP3      OH2            19.9741964810       40.2631167438        9.3993318360  SOLV      1404            0.0000000000
      4242      1387  TIP3      H1             20.4193564810       39.4713667438        9.7013018360  SOLV      1404            0.0000000000
      4243      1387  TIP3      H2             20.4404964810       40.9796367438        9.8298918360  SOLV      1404            0.0000000000
      4244      1388  TIP3      OH2            18.2782264810       43.2624167438       10.4683518360  SOLV      1405            0.0000000000
      4245      1388  TIP3      H1             18.7702064810       43.0414667438        9.6775518360  SOLV      1405            0.0000000000
      4246      1388  TIP3      H2             18.6403164810       44.1027567438       10.7493018360  SOLV      1405            0.0000000000
      4247      1389  TIP3      OH2            36.2746064810       39.5925667438       16.7337518360  SOLV      1406            0.0000000000
      4248      1389  TIP3      H1             35.3571764810       39.8632767438       16.6981018360  SOLV      1406            0.0000000000
      4249      1389  TIP3      H2             36.3975464810       39.0574067438       15.9497218360  SOLV      1406            0.0000000000
      4250      1390  TIP3      OH2            36.3108064810       39.5155567438        1.3955218360  SOLV      1407            0.0000000000
      4251      1390  TIP3      H1             36.7230664810       38.7941267438        0.9203218360  SOLV      1407            0.0000000000
      4252      1390  TIP3      H2             36.9924564810       40.1850167438        1.4539518360  SOLV      1407            0.0000000000
      4253      1391  TIP3      OH2            18.5918764810       39.5203267438        4.5225918360  SOLV      1408            0.0000000000
      4254      1391  TIP3      H1             17.6667164810       39.7289867438        4.3931418360  SOLV      1408            0.0000000000
      4255      1391  TIP3      H2             19.0458664810       40.0044067438        3.8328218360  SOLV      1408            0.0000000000
      4256      1392  TIP3      OH2            18.5554164810       38.2582267438       12.8668418360  SOLV      1409            0.0000000000
      4257      1392  TIP3      H1             17.8904664810       38.0122567438       13.5099318360  SOLV      1409            0.0000000000
      4258      1392  TIP3      H2             18.1125464810       38.8802667438       12.2896418360  SOLV      1409            0.0000000000
      4259      1393  TIP3      OH2            35.2751964810       37.6821967438       14.5528318360  SOLV      1410            0.0000000000
      4260      1393  TIP3      H1             34.4625464810       38.0072267438       14.1653018360  SOLV      1410            0.0000000000
      4261      1393  TIP3      H2             35.5080464810       36.9220467438       14.0197418360  SOLV      1410            0.0000000000
      4262      1394  TIP3      OH2            28.7050464810       39.1312567438        8.8756518360  SOLV      1411            0.0000000000
      4263      1394  TIP3      H1             28.0307264810       38.5018167438        9.1312318360  SOLV      1411            0.0000000000
      4264      1394  TIP3      H2             29.2689664810       38.6471467438        8.2724418360  SOLV      1411            0.0000000000
      4265      1395  TIP3      OH2            33.8477664810       37.2386567438        8.9883618360  SOLV      1412            0.0000000000
      4266      1395  TIP3      H1             34.4515264810       37.7861967438        8.4864618360  SOLV      1412            0.0000000000
      4267      1395  TIP3      H2             32.9779664810       37.5576967438        8.7477718360  SOLV      1412            0.0000000000
      4268      1396  TIP3      OH2            35.5748064810       38.3775267438        7.3214518360  SOLV      1413            0.0000000000
      4269      1396  TIP3      H1             36.1865564810       37.8630967438        6.7948118360  SOLV      1413            0.0000000000
      4270      1396  TIP3      H2             35.9571464810       39.2547367438        7.3448918360  SOLV      1413            0.0000000000
      4271      1397  TIP3      OH2            21.0317964810       37.7652867438        6.6976418360  SOLV      1414            0.0000000000
      4272      1397  TIP3      H1             20.2547764810       37.5307767438        6.1902318360  SOLV      1414            0.0000000000
      4273      1397  TIP3      H2             21.5621564810       36.9684967438        6.7064418360  SOLV      1414            0.0000000000
      4274      1398  TIP3      OH2            19.8681364810       37.5630967438        2.5012518360  SOLV      1415            0.0000000000
      4275      1398  TIP3      H1             20.3072064810       38.1741467438        1.9096018360  SOLV      1415            0.0000000000
      4276      1398  TIP3      H2             19.2343764810       38.1015067438        2.9752518360  SOLV      1415            0.0000000000
      4277      1399  TIP3      OH2            25.6110564810       37.6919967438        6.5109518360  SOLV      1416            0.0000000000
      4278      1399  TIP3      H1             26.4853964810       38.0804267438        6.4813818360  SOLV      1416            0.0000000000
      4279      1399  TIP3      H2             25.4751364810       37.4767767438        7.4336718360  SOLV      1416            0.0000000000
      4280      1400  TIP3      OH2            31.1678964810       37.7219767438        8.1601218360  SOLV      1417            0.0000000000
      4281      1400  TIP3      H1             31.2440564810       37.8171367438        7.2107218360  SOLV      1417            0.0000000000
      4282      1400  TIP3      H2             30.8928164810       36.8142667438        8.2890318360  SOLV      1417            0.0000000000
      4283      1401  TIP3      OH2            32.5211564810       37.7477567438        3.8526218360  SOLV      1418            0.0000000000
      4284      1401  TIP3      H1             31.8182664810       38.3626767438        3.6427618360  SOLV      1418            0.0000000000
      4285      1401  TIP3      H2             32.0762964810       36.9104267438        3.9837118360  SOLV      1418            0.0000000000
      4286      1402  TIP3      OH2            21.7290464810       39.4792467438        0.9436618360  SOLV      1419            0.0000000000
      4287      1402  TIP3      H1             22.2203864810       38.8494867438        0.4162118360  SOLV      1419            0.0000000000
      4288      1402  TIP3      H2             22.3526764810       39.7751867438        1.6067818360  SOLV      1419            0.0000000000
      4289      1403  TIP3      OH2            26.7550564810       39.7723967438        3.4007118360  SOLV      1420            0.0000000000
      4290      1403  TIP3      H1             26.9331864810       39.1257167438        4.0835718360  SOLV      1420            0.0000000000
      4291      1403  TIP3      H2             26.7016764810       40.6061667438        3.8678218360  SOLV      1420            0.0000000000
      4292      1404  TIP3      OH2            20.9895964810       38.2794767438       16.2152618360  SOLV      1421            0.0000000000
      4293      1404  TIP3      H1             20.6234164810       37.5137367438       16.6577318360  SOLV      1421            0.0000000000
      4294      1404  TIP3      H2             21.9024464810       38.3084967438       16.5017718360  SOLV      1421            0.0000000000
      4295      1405  TIP3      OH2            22.9626764810       37.6299167438       17.7509718360  SOLV      1422            0.0000000000
      4296      1405  TIP3      H1             23.8610364810       37.3559367438       17.5663118360  SOLV      1422            0.0000000000
      4297      1405  TIP3      H2             22.5759864810       36.8875167438       18.2152318360  SOLV      1422            0.0000000000
      4298      1406  TIP3      OH2            31.3839064810       36.9624467438       17.9332518360  SOLV      1423            0.0000000000
      4299      1406  TIP3      H1             31.4606264810       36.5365167438       18.7870218360  SOLV      1423            0.0000000000
      4300      1406  TIP3      H2             32.2775664810       36.9759167438       17.5906018360  SOLV      1423            0.0000000000
      4301      1407  TIP3      OH2            39.9116864810       45.7907967438       11.6682018360  SOLV      1426            0.0000000000
      4302      1407  TIP3      H1             39.9528964810       45.1651267438       12.3914418360  SOLV      1426            0.0000000000
      4303      1407  TIP3      H2             40.6144564810       46.4146567438       11.8502418360  SOLV      1426            0.0000000000
      4304      1408  TIP3      OH2            37.4450464810       43.9009467438        5.5959918360  SOLV      1427            0.0000000000
      4305      1408  TIP3      H1             36.9973864810       44.7468167438        5.5776418360  SOLV      1427            0.0000000000
      4306      1408  TIP3      H2             36.8841664810       43.3213667438        5.0805018360  SOLV      1427            0.0000000000
      4307      1409  TIP3      OH2            38.1556564810       46.0629067438        7.7217918360  SOLV      1428            0.0000000000
      4308      1409  TIP3      H1             38.3690064810       45.2930667438        8.2490918360  SOLV      1428            0.0000000000
      4309      1409  TIP3      H2             38.8934164810       46.1525767438        7.1185518360  SOLV      1428            0.0000000000
      4310      1410  TIP3      OH2            49.0733264810       43.0029667438       10.8087918360  SOLV      1430            0.0000000000
      4311      1410  TIP3      H1             49.2159164810       42.0566667438       10.8289518360  SOLV      1430            0.0000000000
      4312      1410  TIP3      H2             48.9672264810       43.2099467438        9.8802818360  SOLV      1430            0.0000000000
      4313      1411  TIP3      OH2            42.2281564810       41.1046067438        8.0812718360  SOLV      1431            0.0000000000
      4314      1411  TIP3      H1             42.2712664810       41.9644567438        7.6629018360  SOLV      1431            0.0000000000
      4315      1411  TIP3      H2             41.7705664810       40.5520767438        7.4475918360  SOLV      1431            0.0000000000
      4316      1412  TIP3      OH2            38.8483064810       43.5011867438        8.8434118360  SOLV      1432            0.0000000000
      4317      1412  TIP3      H1             39.5019664810       42.9513567438        9.2754218360  SOLV      1432            0.0000000000
      4318      1412  TIP3      H2             38.8722364810       43.2270867438        7.9266118360  SOLV      1432            0.0000000000
      4319      1413  TIP3      OH2            44.0047564810       45.0513167438        8.0585618360  SOLV      1433            0.0000000000
      4320      1413  TIP3      H1             44.6208564810       44.5248567438        8.5679618360  SOLV      1433            0.0000000000
      4321      1413  TIP3      H2             43.4186364810       44.4111867438        7.6549218360  SOLV      1433            0.0000000000
      4322      1414  TIP3      OH2            41.0383464810       40.0224467438       12.1553518360  SOLV      1434            0.0000000000
      4323      1414  TIP3      H1             40.8195164810       40.5525067438       11.3889518360  SOLV      1434            0.0000000000
      4324      1414  TIP3      H2             40.3704364810       40.2489967438       12.8024918360  SOLV      1434            0.0000000000
      4325      1415  TIP3      OH2            43.6074864810       47.6980167438       12.4427218360  SOLV      1436            0.0000000000
      4326      1415  TIP3      H1             42.8673964810       48.2961667438       12.5462418360  SOLV      1436            0.0000000000
      4327      1415  TIP3      H2             44.3214364810       48.2519767438       12.1270818360  SOLV      1436            0.0000000000
      4328      1416  TIP3      OH2            40.6320764810       41.9146267438       10.1075718360  SOLV      1437            0.0000000000
      4329      1416  TIP3      H1             41.2457064810       42.5473867438       10.4808118360  SOLV      1437            0.0000000000
      4330      1416  TIP3      H2             41.1441464810       41.4421267438        9.4512618360  SOLV      1437            0.0000000000
      4331      1417  TIP3      OH2            38.1360064810       49.3331067438        4.0118018360  SOLV      1438            0.0000000000
      4332      1417  TIP3      H1             37.8640964810       49.5622067438        3.1230918360  SOLV      1438            0.0000000000
      4333      1417  TIP3      H2             38.1815764810       50.1709867438        4.4723318360  SOLV      1438            0.0000000000
      4334      1418  TIP3      OH2            45.0648164810       37.3279567438        9.6078418360  SOLV      1439            0.0000000000
      4335      1418  TIP3      H1             44.9472364810       36.3795567438        9.5536718360  SOLV      1439            0.0000000000
      4336      1418  TIP3      H2             44.2098264810       37.6605667438        9.8809518360  SOLV      1439            0.0000000000
      4337      1419  TIP3      OH2            42.7489964810       45.7740267438       10.5760118360  SOLV      1443            0.0000000000
      4338      1419  TIP3      H1             43.3142464810       45.8954467438        9.8131318360  SOLV      1443            0.0000000000
      4339      1419  TIP3      H2             43.0678864810       46.4115267438       11.2148618360  SOLV      1443            0.0000000000
      4340      1420  TIP3      OH2            40.5490564810       46.3714067438       14.5217718360  SOLV      1445            0.0000000000
      4341      1420  TIP3      H1             40.6193764810       47.0220867438       15.2202718360  SOLV      1445            0.0000000000
      4342      1420  TIP3      H2             39.6582764810       46.4741567438       14.1868618360  SOLV      1445            0.0000000000
      4343      1421  TIP3      OH2            37.4657264810       48.4378167438       13.3467718360  SOLV      1447            0.0000000000
      4344      1421  TIP3      H1             36.9645664810       48.4097567438       12.5317418360  SOLV      1447            0.0000000000
      4345      1421  TIP3      H2             37.4710964810       47.5321367438       13.6565018360  SOLV      1447            0.0000000000
      4346      1422  TIP3      OH2            39.7147764810       49.7613567438       14.3900518360  SOLV      1448            0.0000000000
      4347      1422  TIP3      H1             39.9309064810       49.3999167438       15.2496318360  SOLV      1448            0.0000000000
      4348      1422  TIP3      H2             38.8592464810       49.3867367438       14.1804018360  SOLV      1448            0.0000000000
      4349      1423  TIP3      OH2            42.3335764810       38.2314067438       10.3854718360  SOLV      1449            0.0000000000
      4350      1423  TIP3      H1             41.4719464810       38.1442267438        9.9777618360  SOLV      1449            0.0000000000
      4351      1423  TIP3      H2             42.3111464810       39.0874167438       10.8132318360  SOLV      1449            0.0000000000
      4352      1424  TIP3      OH2            46.9963564810       37.9534467438       13.7601718360  SOLV      1450            0.0000000000
      4353      1424  TIP3      H1             47.4166664810       37.5381567438       14.5132318360  SOLV      1450            0.0000000000
      4354      1424  TIP3      H2             46.0633164810       37.7747767438       13.8773718360  SOLV      1450            0.0000000000
      4355      1425  TIP3      OH2            46.6580864810       40.4457867438        1.0452518360  SOLV      1451            0.0000000000
      4356      1425  TIP3      H1             46.4045664810       40.4649467438        1.9680618360  SOLV      1451            0.0000000000
      4357      1425  TIP3      H2             46.4012964810       39.5743267438        0.7438718360  SOLV      1451            0.0000000000
      4358      1426  TIP3      OH2            42.4245864810       43.1968567438       11.4804918360  SOLV      1452            0.0000000000
      4359      1426  TIP3      H1             41.7827964810       43.1565867438       12.1895018360  SOLV      1452            0.0000000000
      4360      1426  TIP3      H2             42.4617864810       44.1233267438       11.2427918360  SOLV      1452            0.0000000000
      4361      1427  TIP3      OH2            42.4214964810       43.4178667438        6.3924918360  SOLV      1453            0.0000000000
      4362      1427  TIP3      H1             41.5287864810       43.0774767438        6.3338718360  SOLV      1453            0.0000000000
      4363      1427  TIP3      H2             42.8721564810       43.0409567438        5.6368118360  SOLV      1453            0.0000000000
      4364      1428  TIP3      OH2            47.0592064810       44.0095367438       16.6976418360  SOLV      1455            0.0000000000
      4365      1428  TIP3      H1             46.4965864810       43.3046967438       17.0184218360  SOLV      1455            0.0000000000
      4366      1428  TIP3      H2             47.8855464810       43.8887267438       17.1654018360  SOLV      1455            0.0000000000
      4367      1429  TIP3      OH2            48.9618164810       43.2799367438        8.0235418360  SOLV      1456            0.0000000000
      4368      1429  TIP3      H1             48.7662664810       43.8856167438        7.3086018360  SOLV      1456            0.0000000000
      4369      1429  TIP3      H2             49.1430764810       42.4464567438        7.5891718360  SOLV      1456            0.0000000000
      4370      1430  TIP3      OH2            40.1746364810       43.5172067438       13.3476918360  SOLV      1457            0.0000000000
      4371      1430  TIP3      H1             40.1365764810       43.9173667438       14.2164018360  SOLV      1457            0.0000000000
      4372      1430  TIP3      H2             39.6837464810       42.7004467438       13.4379818360  SOLV      1457            0.0000000000
      4373      1431  TIP3      OH2            43.5403764810       40.8914367438        0.1462918360  SOLV      1458            0.0000000000
      4374      1431  TIP3      H1             43.1094464810       40.4464467438        0.8760318360  SOLV      1458            0.0000000000
      4375      1431  TIP3      H2             42.8222464810       41.2630667438       -0.3659581640  SOLV      1458            0.0000000000
      4376      1432  TIP3      OH2            36.7827164810       40.6333867438        7.1981618360  SOLV      1459            0.0000000000
      4377      1432  TIP3      H1             37.4134864810       40.6045967438        7.9175518360  SOLV      1459            0.0000000000
      4378      1432  TIP3      H2             37.2321464810       40.2082567438        6.4677518360  SOLV      1459            0.0000000000
      4379      1433  TIP3      OH2            38.0569264810       41.3795867438        2.6222018360  SOLV      1460            0.0000000000
      4380      1433  TIP3      H1             38.5310964810       41.9705767438        2.0372918360  SOLV      1460            0.0000000000
      4381      1433  TIP3      H2             37.3395664810       41.9098767438        2.9692118360  SOLV      1460            0.0000000000
      4382      1434  TIP3      OH2            48.2257364810       44.9180667438       12.6947818360  SOLV      1461            0.0000000000
      4383      1434  TIP3      H1             48.5492164810       44.2870367438       12.0518318360  SOLV      1461            0.0000000000
      4384      1434  TIP3      H2             47.7856664810       44.3832867438       13.3555218360  SOLV      1461            0.0000000000
      4385      1435  TIP3      OH2            45.0030264810       40.8456167438        7.4789018360  SOLV      1462            0.0000000000
      4386      1435  TIP3      H1             44.0921364810       40.9022967438        7.7675018360  SOLV      1462            0.0000000000
      4387      1435  TIP3      H2             45.5083164810       40.7851667438        8.2896218360  SOLV      1462            0.0000000000
      4388      1436  TIP3      OH2            39.8313664810       42.4742467438        6.3056618360  SOLV      1463            0.0000000000
      4389      1436  TIP3      H1             38.9421664810       42.5737967438        5.9656218360  SOLV      1463            0.0000000000
      4390      1436  TIP3      H2             40.1278564810       41.6325467438        5.9594518360  SOLV      1463            0.0000000000
      4391      1437  TIP3      OH2            49.4082164810       40.0802467438       10.7430818360  SOLV      1465            0.0000000000
      4392      1437  TIP3      H1             48.7313764810       40.2115567438       11.4070518360  SOLV      1465            0.0000000000
      4393      1437  TIP3      H2             48.9227064810       39.9251967438        9.9328518360  SOLV      1465            0.0000000000
      4394      1438  TIP3      OH2            42.1585664810       43.6687267438        1.5287318360  SOLV      1466            0.0000000000
      4395      1438  TIP3      H1             41.6160764810       43.2891067438        0.8374918360  SOLV      1466            0.0000000000
      4396      1438  TIP3      H2             42.9920564810       43.8631967438        1.1001418360  SOLV      1466            0.0000000000
      4397      1439  TIP3      OH2            40.2937064810       48.2259167438       16.6278918360  SOLV      1467            0.0000000000
      4398      1439  TIP3      H1             41.0259464810       48.4805067438       17.1893418360  SOLV      1467            0.0000000000
      4399      1439  TIP3      H2             39.5135764810       48.4304567438       17.1434318360  SOLV      1467            0.0000000000
      4400      1440  TIP3      OH2            46.3229964810       43.6329167438        9.3658618360  SOLV      1468            0.0000000000
      4401      1440  TIP3      H1             46.8873364810       43.0865767438        8.8188218360  SOLV      1468            0.0000000000
      4402      1440  TIP3      H2             46.1753364810       43.1111067438       10.1546218360  SOLV      1468            0.0000000000
      4403      1441  TIP3      OH2            41.3249664810       39.7695267438        5.7843418360  SOLV      1469            0.0000000000
      4404      1441  TIP3      H1             41.0079164810       38.8670567438        5.7488818360  SOLV      1469            0.0000000000
      4405      1441  TIP3      H2             42.1063764810       39.7712667438        5.2315018360  SOLV      1469            0.0000000000
      4406      1442  TIP3      OH2            44.9495864810       42.0215267438       11.7799018360  SOLV      1470            0.0000000000
      4407      1442  TIP3      H1             44.1141164810       42.4754767438       11.8901418360  SOLV      1470            0.0000000000
      4408      1442  TIP3      H2             45.4736464810       42.2973767438       12.5318918360  SOLV      1470            0.0000000000
      4409      1443  TIP3      OH2            47.0130564810       48.4186267438       14.7014518360  SOLV      1473            0.0000000000
      4410      1443  TIP3      H1             46.6676664810       48.0368667438       15.5084118360  SOLV      1473            0.0000000000
      4411      1443  TIP3      H2             46.8130664810       49.3519867438       14.7727418360  SOLV      1473            0.0000000000
      4412      1444  TIP3      OH2            40.6186764810       47.5292967438        9.2343318360  SOLV      1474            0.0000000000
      4413      1444  TIP3      H1             41.3633964810       47.5268667438        8.6329818360  SOLV      1474            0.0000000000
      4414      1444  TIP3      H2             40.6963364810       46.7056767438        9.7158418360  SOLV      1474            0.0000000000
      4415      1445  TIP3      OH2            37.6266464810       45.9899867438       14.5491818360  SOLV      1476            0.0000000000
      4416      1445  TIP3      H1             37.8495064810       45.5719467438       15.3809318360  SOLV      1476            0.0000000000
      4417      1445  TIP3      H2             37.0246564810       45.3774867438       14.1264618360  SOLV      1476            0.0000000000
      4418      1446  TIP3      OH2            44.6431364810       45.5069767438       16.7621518360  SOLV      1477            0.0000000000
      4419      1446  TIP3      H1             44.3472164810       45.3412767438       15.8670618360  SOLV      1477            0.0000000000
      4420      1446  TIP3      H2             45.5746564810       45.2870067438       16.7515418360  SOLV      1477            0.0000000000
      4421      1447  TIP3      OH2            38.7483864810       45.9095267438        1.2257218360  SOLV      1478            0.0000000000
      4422      1447  TIP3      H1             39.3643764810       46.5362467438        1.6052018360  SOLV      1478            0.0000000000
      4423      1447  TIP3      H2             37.8866464810       46.2255067438        1.4973718360  SOLV      1478            0.0000000000
      4424      1448  TIP3      OH2            39.2605964810       40.7432567438       14.1073218360  SOLV      1481            0.0000000000
      4425      1448  TIP3      H1             38.3678264810       41.0817967438       14.0397218360  SOLV      1481            0.0000000000
      4426      1448  TIP3      H2             39.1618764810       39.8878667438       14.5254018360  SOLV      1481            0.0000000000
      4427      1449  TIP3      OH2            40.1634264810       47.8219067438        2.7182818360  SOLV      1482            0.0000000000
      4428      1449  TIP3      H1             39.4773564810       48.1741567438        3.2852518360  SOLV      1482            0.0000000000
      4429      1449  TIP3      H2             40.6862164810       48.5848667438        2.4717118360  SOLV      1482            0.0000000000
      4430      1450  TIP3      OH2            47.9949364810       40.4842867438       12.9971818360  SOLV      1483            0.0000000000
      4431      1450  TIP3      H1             48.6937264810       40.5581567438       13.6471518360  SOLV      1483            0.0000000000
      4432      1450  TIP3      H2             47.6140764810       39.6197867438       13.1514718360  SOLV      1483            0.0000000000
      4433      1451  TIP3      OH2            48.7794264810       40.1364567438        4.0944118360  SOLV      1484            0.0000000000
      4434      1451  TIP3      H1             48.9992564810       40.6079967438        3.2909518360  SOLV      1484            0.0000000000
      4435      1451  TIP3      H2             49.3378264810       40.5307167438        4.7644718360  SOLV      1484            0.0000000000
      4436      1452  TIP3      OH2            46.5150564810       42.8506067438       14.1139118360  SOLV      1486            0.0000000000
      4437      1452  TIP3      H1             46.6340864810       43.4241467438       14.8709518360  SOLV      1486            0.0000000000
      4438      1452  TIP3      H2             47.1705164810       42.1625467438       14.2286918360  SOLV      1486            0.0000000000
      4439      1453  TIP3      OH2            46.8630864810       38.9456367438        5.8673618360  SOLV      1487            0.0000000000
      4440      1453  TIP3      H1             46.5164364810       39.5626967438        6.5117918360  SOLV      1487            0.0000000000
      4441      1453  TIP3      H2             47.5217764810       39.4462067438        5.3859118360  SOLV      1487            0.0000000000
      4442      1454  TIP3      OH2            42.5207864810       40.0085767438        2.5546118360  SOLV      1488            0.0000000000
      4443      1454  TIP3      H1             42.4372664810       40.8968867438        2.9012518360  SOLV      1488            0.0000000000
      4444      1454  TIP3      H2             43.4108164810       39.7432467438        2.7862918360  SOLV      1488            0.0000000000
      4445      1455  TIP3      OH2            39.0952364810       43.1000967438        0.7310018360  SOLV      1489            0.0000000000
      4446      1455  TIP3      H1             39.0504964810       44.0394067438        0.9097018360  SOLV      1489            0.0000000000
      4447      1455  TIP3      H2             38.2075564810       42.8645867438        0.4612118360  SOLV      1489            0.0000000000
      4448      1456  TIP3      OH2            39.9034364810       37.8817567438        9.4041018360  SOLV      1490            0.0000000000
      4449      1456  TIP3      H1             39.6744164810       37.9410067438        8.4766018360  SOLV      1490            0.0000000000
      4450      1456  TIP3      H2             39.4607764810       37.0903067438        9.7105118360  SOLV      1490            0.0000000000
      4451      1457  TIP3      OH2            38.0290864810       48.2452467438       17.8489118360  SOLV      1491            0.0000000000
      4452      1457  TIP3      H1             38.1731364810       47.3433167438       17.5625818360  SOLV      1491            0.0000000000
      4453      1457  TIP3      H2             37.2568264810       48.5314567438       17.3611418360  SOLV      1491            0.0000000000
      4454      1458  TIP3      OH2            44.6846964810       48.2150567438       17.2815518360  SOLV      1492            0.0000000000
      4455      1458  TIP3      H1             44.3560764810       48.4858667438       16.4242918360  SOLV      1492            0.0000000000
      4456      1458  TIP3      H2             44.8365164810       47.2740367438       17.1940518360  SOLV      1492            0.0000000000
      4457      1459  TIP3      OH2            38.8617364810       45.4455767438       17.2688418360  SOLV      1494            0.0000000000
      4458      1459  TIP3      H1             39.2698564810       44.5882367438       17.1479018360  SOLV      1494            0.0000000000
      4459      1459  TIP3      H2             38.6014964810       45.4597067438       18.1898718360  SOLV      1494            0.0000000000
      4460      1460  TIP3      OH2            42.8087664810       44.4541467438       14.6431318360  SOLV      1496            0.0000000000
      4461      1460  TIP3      H1             42.1903764810       45.1288067438       14.9236018360  SOLV      1496            0.0000000000
      4462      1460  TIP3      H2             43.1528864810       44.7755367438       13.8097518360  SOLV      1496            0.0000000000
      4463      1461  TIP3      OH2            47.8285864810       46.9256767438       17.9206118360  SOLV      1498            0.0000000000
      4464      1461  TIP3      H1             48.7817064810       47.0095867438       17.8932118360  SOLV      1498            0.0000000000
      4465      1461  TIP3      H2             47.6680464810       46.2138567438       18.5401018360  SOLV      1498            0.0000000000
      4466      1462  TIP3      OH2            43.1481364810       41.8092267438       15.7254418360  SOLV      1499            0.0000000000
      4467      1462  TIP3      H1             43.2982264810       41.0803567438       15.1234118360  SOLV      1499            0.0000000000
      4468      1462  TIP3      H2             43.1503764810       42.5863967438       15.1666618360  SOLV      1499            0.0000000000
      4469      1463  TIP3      OH2            43.5607064810       40.1788067438       13.2181818360  SOLV      1500            0.0000000000
      4470      1463  TIP3      H1             44.0964564810       40.6304767438       12.5661118360  SOLV      1500            0.0000000000
      4471      1463  TIP3      H2             42.7086664810       40.0707867438       12.7955918360  SOLV      1500            0.0000000000
      4472      1464  TIP3      OH2            45.1425464810       45.6184267438       13.4577018360  SOLV      1501            0.0000000000
      4473      1464  TIP3      H1             45.8930264810       45.4621767438       12.8844818360  SOLV      1501            0.0000000000
      4474      1464  TIP3      H2             44.8033764810       46.4700867438       13.1822518360  SOLV      1501            0.0000000000
      4475      1465  TIP3      OH2            49.5581664810       43.4336067438       18.4862318360  SOLV      1502            0.0000000000
      4476      1465  TIP3      H1             49.7502964810       42.5025467438       18.3746818360  SOLV      1502            0.0000000000
      4477      1465  TIP3      H2             50.4157964810       43.8585567438       18.4757718360  SOLV      1502            0.0000000000
      4478      1466  TIP3      OH2            41.6267664810       43.0075767438       17.6370018360  SOLV      1503            0.0000000000
      4479      1466  TIP3      H1             40.8596664810       42.4750567438       17.4267618360  SOLV      1503            0.0000000000
      4480      1466  TIP3      H2             42.3056664810       42.6976167438       17.0376318360  SOLV      1503            0.0000000000
      4481      1467  TIP3      OH2            44.3662564810       37.6353767438       13.6495418360  SOLV      1504            0.0000000000
      4482      1467  TIP3      H1             44.2682164810       38.5816967438       13.5441618360  SOLV      1504            0.0000000000
      4483      1467  TIP3      H2             43.6238764810       37.2627567438       13.1738918360  SOLV      1504            0.0000000000
      4484      1468  TIP3      OH2            45.6303064810       41.9569167438       17.2133818360  SOLV      1505            0.0000000000
      4485      1468  TIP3      H1             45.3948464810       41.7375867438       18.1148718360  SOLV      1505            0.0000000000
      4486      1468  TIP3      H2             44.8469964810       41.7500367438       16.7036318360  SOLV      1505            0.0000000000
      4487      1469  TIP3      OH2            48.3459664810       41.0842667438       16.2887318360  SOLV      1506            0.0000000000
      4488      1469  TIP3      H1             47.3985064810       41.1162367438       16.4210618360  SOLV      1506            0.0000000000
      4489      1469  TIP3      H2             48.6586364810       40.4589767438       16.9425518360  SOLV      1506            0.0000000000
      4490      1470  TIP3      OH2            49.9801164810       39.7183767438       18.2939218360  SOLV      1507            0.0000000000
      4491      1470  TIP3      H1             49.8832964810       38.7661067438       18.2881118360  SOLV      1507            0.0000000000
      4492      1470  TIP3      H2             49.6584264810       39.9870567438       19.1544718360  SOLV      1507            0.0000000000
      4493      1471  TIP3      OH2            39.8070464810       40.9279567438       17.3414718360  SOLV      1508            0.0000000000
      4494      1471  TIP3      H1             40.0187864810       40.2215667438       16.7312218360  SOLV      1508            0.0000000000
      4495      1471  TIP3      H2             39.6957964810       40.4905567438       18.1855918360  SOLV      1508            0.0000000000
      4496      1472  TIP3      OH2            44.5880664810       36.9291167438       16.3208218360  SOLV      1509            0.0000000000
      4497      1472  TIP3      H1             45.2999064810       36.2893367438       16.3067318360  SOLV      1509            0.0000000000
      4498      1472  TIP3      H2             44.4871064810       37.1959467438       15.4071318360  SOLV      1509            0.0000000000
      4499      1473  TIP3      OH2            44.9418164810       38.6119567438       18.3744518360  SOLV      1510            0.0000000000
      4500      1473  TIP3      H1             44.8100364810       38.1363367438       17.5543018360  SOLV      1510            0.0000000000
      4501      1473  TIP3      H2             44.3425564810       39.3563167438       18.3191618360  SOLV      1510            0.0000000000
      4502      1474  TIP3      OH2            37.6554664810       46.6804567438       10.3671618360  SOLV      1511            0.0000000000
      4503      1474  TIP3      H1             37.8397564810       46.5986267438        9.4314518360  SOLV      1511            0.0000000000
      4504      1474  TIP3      H2             38.5047564810       46.5561567438       10.7908018360  SOLV      1511            0.0000000000
      4505      1475  TIP3      OH2            37.2529464810       41.9509567438       16.5080418360  SOLV      1512            0.0000000000
      4506      1475  TIP3      H1             38.1724364810       41.8287867438       16.7443518360  SOLV      1512            0.0000000000
      4507      1475  TIP3      H2             36.8033964810       41.2009267438       16.8973918360  SOLV      1512            0.0000000000
      4508      1476  TIP3      OH2            38.4741964810       40.2631167438        9.3993318360  SOLV      1513            0.0000000000
      4509      1476  TIP3      H1             38.9193564810       39.4713667438        9.7013018360  SOLV      1513            0.0000000000
      4510      1476  TIP3      H2             38.9404964810       40.9796367438        9.8298918360  SOLV      1513            0.0000000000
      4511      1477  TIP3      OH2            36.7782264810       43.2624167438       10.4683518360  SOLV      1514            0.0000000000
      4512      1477  TIP3      H1             37.2702064810       43.0414667438        9.6775518360  SOLV      1514            0.0000000000
      4513      1477  TIP3      H2             37.1403164810       44.1027567438       10.7493018360  SOLV      1514            0.0000000000
      4514      1478  TIP3      OH2            37.0918764810       39.5203267438        4.5225918360  SOLV      1515            0.0000000000
      4515      1478  TIP3      H1             36.1667164810       39.7289867438        4.3931418360  SOLV      1515            0.0000000000
      4516      1478  TIP3      H2             37.5458664810       40.0044067438        3.8328218360  SOLV      1515            0.0000000000
      4517      1479  TIP3      OH2            37.0554164810       38.2582267438       12.8668418360  SOLV      1516            0.0000000000
      4518      1479  TIP3      H1             36.3904664810       38.0122567438       13.5099318360  SOLV      1516            0.0000000000
      4519      1479  TIP3      H2             36.6125464810       38.8802667438       12.2896418360  SOLV      1516            0.0000000000
      4520      1480  TIP3      OH2            47.2050464810       39.1312567438        8.8756518360  SOLV      1517            0.0000000000
      4521      1480  TIP3      H1             46.5307264810       38.5018167438        9.1312318360  SOLV      1517            0.0000000000
      4522      1480  TIP3      H2             47.7689664810       38.6471467438        8.2724418360  SOLV      1517            0.0000000000
      4523      1481  TIP3      OH2            39.5317964810       37.7652867438        6.6976418360  SOLV      1518            0.0000000000
      4524      1481  TIP3      H1             38.7547764810       37.5307767438        6.1902318360  SOLV      1518            0.0000000000
      4525      1481  TIP3      H2             40.0621564810       36.9684967438        6.7064418360  SOLV      1518            0.0000000000
      4526      1482  TIP3      OH2            38.3681364810       37.5630967438        2.5012518360  SOLV      1519            0.0000000000
      4527      1482  TIP3      H1             38.8072064810       38.1741467438        1.9096018360  SOLV      1519            0.0000000000
      4528      1482  TIP3      H2             37.7343764810       38.1015067438        2.9752518360  SOLV      1519            0.0000000000
      4529      1483  TIP3      OH2            44.1110564810       37.6919967438        6.5109518360  SOLV      1520            0.0000000000
      4530      1483  TIP3      H1             44.9853964810       38.0804267438        6.4813818360  SOLV      1520            0.0000000000
      4531      1483  TIP3      H2             43.9751364810       37.4767767438        7.4336718360  SOLV      1520            0.0000000000
      4532      1484  TIP3      OH2            49.6678964810       37.7219767438        8.1601218360  SOLV      1521            0.0000000000
      4533      1484  TIP3      H1             49.7440564810       37.8171367438        7.2107218360  SOLV      1521            0.0000000000
      4534      1484  TIP3      H2             49.3928164810       36.8142667438        8.2890318360  SOLV      1521            0.0000000000
      4535      1485  TIP3      OH2            40.2290464810       39.4792467438        0.9436618360  SOLV      1522            0.0000000000
      4536      1485  TIP3      H1             40.7203864810       38.8494867438        0.4162118360  SOLV      1522            0.0000000000
      4537      1485  TIP3      H2             40.8526764810       39.7751867438        1.6067818360  SOLV      1522            0.0000000000
      4538      1486  TIP3      OH2            45.2550564810       39.7723967438        3.4007118360  SOLV      1523            0.0000000000
      4539      1486  TIP3      H1             45.4331864810       39.1257167438        4.0835718360  SOLV      1523            0.0000000000
      4540      1486  TIP3      H2             45.2016764810       40.6061667438        3.8678218360  SOLV      1523            0.0000000000
      4541      1487  TIP3      OH2            39.4895964810       38.2794767438       16.2152618360  SOLV      1524            0.0000000000
      4542      1487  TIP3      H1             39.1234164810       37.5137367438       16.6577318360  SOLV      1524            0.0000000000
      4543      1487  TIP3      H2             40.4024464810       38.3084967438       16.5017718360  SOLV      1524            0.0000000000
      4544      1488  TIP3      OH2            41.4626764810       37.6299167438       17.7509718360  SOLV      1525            0.0000000000
      4545      1488  TIP3      H1             42.3610364810       37.3559367438       17.5663118360  SOLV      1525            0.0000000000
      4546      1488  TIP3      H2             41.0759864810       36.8875167438       18.2152318360  SOLV      1525            0.0000000000
      4547      1489  TIP3      OH2            11.6100564810        9.9215167438       25.1563918360  SOLV      1526            0.0000000000
      4548      1489  TIP3      H1             11.6991664810       10.8653367438       25.0241018360  SOLV      1526            0.0000000000
      4549      1489  TIP3      H2             10.9718164810        9.6461567438       24.4983318360  SOLV      1526            0.0000000000
      4550      1490  TIP3      OH2            10.5431864810        9.1765867438       28.5752118360  SOLV      1527            0.0000000000
      4551      1490  TIP3      H1             10.5049364810        8.5302167438       29.2801718360  SOLV      1527            0.0000000000
      4552      1490  TIP3      H2             10.2208364810        8.7100267438       27.8040818360  SOLV      1527            0.0000000000
      4553      1491  TIP3      OH2             2.9116864810        8.7907967438       30.1682018360  SOLV      1528            0.0000000000
      4554      1491  TIP3      H1              2.9528964810        8.1651267438       30.8914418360  SOLV      1528            0.0000000000
      4555      1491  TIP3      H2              3.6144564810        9.4146567438       30.3502418360  SOLV      1528            0.0000000000
      4556      1492  TIP3      OH2            14.2492064810       12.1156267438       26.8767218360  SOLV      1529            0.0000000000
      4557      1492  TIP3      H1             13.8084764810       11.3952267438       27.3272818360  SOLV      1529            0.0000000000
      4558      1492  TIP3      H2             14.2361764810       12.8363467438       27.5064918360  SOLV      1529            0.0000000000
      4559      1493  TIP3      OH2             3.8349964810       13.2406867438       28.7031118360  SOLV      1530            0.0000000000
      4560      1493  TIP3      H1              3.4655164810       12.4387367438       28.3335418360  SOLV      1530            0.0000000000
      4561      1493  TIP3      H2              4.7761064810       13.0721767438       28.7494518360  SOLV      1530            0.0000000000
      4562      1494  TIP3      OH2             0.4450464810        6.9009467438       24.0959918360  SOLV      1531            0.0000000000
      4563      1494  TIP3      H1             -0.0026135190        7.7468167438       24.0776418360  SOLV      1531            0.0000000000
      4564      1494  TIP3      H2             -0.1158335190        6.3213667438       23.5805018360  SOLV      1531            0.0000000000
      4565      1495  TIP3      OH2             1.1556564810        9.0629067438       26.2217918360  SOLV      1532            0.0000000000
      4566      1495  TIP3      H1              1.3690064810        8.2930667438       26.7490918360  SOLV      1532            0.0000000000
      4567      1495  TIP3      H2              1.8934164810        9.1525767438       25.6185518360  SOLV      1532            0.0000000000
      4568      1496  TIP3      OH2            11.3607564810       17.2197967438       27.0887618360  SOLV      1533            0.0000000000
      4569      1496  TIP3      H1             11.9803964810       16.5432667438       26.8156818360  SOLV      1533            0.0000000000
      4570      1496  TIP3      H2             11.1524964810       17.0018767438       27.9972518360  SOLV      1533            0.0000000000
      4571      1497  TIP3      OH2             8.9326264810       11.6087267438       28.9813118360  SOLV      1534            0.0000000000
      4572      1497  TIP3      H1              9.2364164810       10.9228667438       28.3867218360  SOLV      1534            0.0000000000
      4573      1497  TIP3      H2              9.6540264810       11.7275967438       29.5991118360  SOLV      1534            0.0000000000
      4574      1498  TIP3      OH2            17.5956064810        3.2102567438       29.8419318360  SOLV      1535            0.0000000000
      4575      1498  TIP3      H1             17.6448264810        3.8203767438       30.5778418360  SOLV      1535            0.0000000000
      4576      1498  TIP3      H2             18.0211164810        3.6713467438       29.1190418360  SOLV      1535            0.0000000000
      4577      1499  TIP3      OH2            12.0733264810        6.0029667438       29.3087918360  SOLV      1536            0.0000000000
      4578      1499  TIP3      H1             12.2159164810        5.0566667438       29.3289518360  SOLV      1536            0.0000000000
      4579      1499  TIP3      H2             11.9672264810        6.2099467438       28.3802818360  SOLV      1536            0.0000000000
      4580      1500  TIP3      OH2             5.2281564810        4.1046067438       26.5812718360  SOLV      1537            0.0000000000
      4581      1500  TIP3      H1              5.2712664810        4.9644567438       26.1629018360  SOLV      1537            0.0000000000
      4582      1500  TIP3      H2              4.7705664810        3.5520767438       25.9475918360  SOLV      1537            0.0000000000
      4583      1501  TIP3      OH2            12.9504264810        4.2351667438       24.9821018360  SOLV      1538            0.0000000000
      4584      1501  TIP3      H1             13.5968564810        3.9064867438       25.6068618360  SOLV      1538            0.0000000000
      4585      1501  TIP3      H2             13.4603664810        4.7530667438       24.3592418360  SOLV      1538            0.0000000000
      4586      1502  TIP3      OH2             1.8483064810        6.5011867438       27.3434118360  SOLV      1539            0.0000000000
      4587      1502  TIP3      H1              2.5019664810        5.9513567438       27.7754218360  SOLV      1539            0.0000000000
      4588      1502  TIP3      H2              1.8722364810        6.2270867438       26.4266118360  SOLV      1539            0.0000000000
      4589      1503  TIP3      OH2             7.0047564810        8.0513167438       26.5585618360  SOLV      1540            0.0000000000
      4590      1503  TIP3      H1              7.6208564810        7.5248567438       27.0679618360  SOLV      1540            0.0000000000
      4591      1503  TIP3      H2              6.4186364810        7.4111867438       26.1549218360  SOLV      1540            0.0000000000
      4592      1504  TIP3      OH2            17.9870664810        4.6881767438       32.0779118360  SOLV      1541            0.0000000000
      4593      1504  TIP3      H1             17.2985264810        5.3462467438       31.9825718360  SOLV      1541            0.0000000000
      4594      1504  TIP3      H2             18.0025264810        4.4909667438       33.0144518360  SOLV      1541            0.0000000000
      4595      1505  TIP3      OH2             4.0383464810        3.0224467438       30.6553518360  SOLV      1542            0.0000000000
      4596      1505  TIP3      H1              3.8195164810        3.5525067438       29.8889518360  SOLV      1542            0.0000000000
      4597      1505  TIP3      H2              3.3704364810        3.2489967438       31.3024918360  SOLV      1542            0.0000000000
      4598      1506  TIP3      OH2            11.4073264810       12.5225567438       24.1992618360  SOLV      1543            0.0000000000
      4599      1506  TIP3      H1             11.1118364810       12.1997867438       23.3479518360  SOLV      1543            0.0000000000
      4600      1506  TIP3      H2             11.0831064810       13.4222267438       24.2405218360  SOLV      1543            0.0000000000
      4601      1507  TIP3      OH2             6.6074864810       10.6980167438       30.9427218360  SOLV      1544            0.0000000000
      4602      1507  TIP3      H1              5.8673964810       11.2961667438       31.0462418360  SOLV      1544            0.0000000000
      4603      1507  TIP3      H2              7.3214364810       11.2519767438       30.6270818360  SOLV      1544            0.0000000000
      4604      1508  TIP3      OH2            14.7142664810        3.5260967438       26.9626918360  SOLV      1545            0.0000000000
      4605      1508  TIP3      H1             14.4990664810        2.7604367438       27.4952918360  SOLV      1545            0.0000000000
      4606      1508  TIP3      H2             15.3700064810        3.9985567438       27.4755418360  SOLV      1545            0.0000000000
      4607      1509  TIP3      OH2             3.6320764810        4.9146267438       28.6075718360  SOLV      1546            0.0000000000
      4608      1509  TIP3      H1              4.2457064810        5.5473867438       28.9808118360  SOLV      1546            0.0000000000
      4609      1509  TIP3      H2              4.1441464810        4.4421267438       27.9512618360  SOLV      1546            0.0000000000
      4610      1510  TIP3      OH2             5.0149164810       12.6623167438       31.7298718360  SOLV      1547            0.0000000000
      4611      1510  TIP3      H1              5.0096764810       13.5416667438       31.3518018360  SOLV      1547            0.0000000000
      4612      1510  TIP3      H2              4.1613264810       12.5787267438       32.1548618360  SOLV      1547            0.0000000000
      4613      1511  TIP3      OH2             1.1360064810       12.3331067438       22.5118018360  SOLV      1548            0.0000000000
      4614      1511  TIP3      H1              0.8640964810       12.5622067438       21.6230918360  SOLV      1548            0.0000000000
      4615      1511  TIP3      H2              1.1815764810       13.1709867438       22.9723318360  SOLV      1548            0.0000000000
      4616      1512  TIP3      OH2            14.7609764810       13.9546967438       29.2246518360  SOLV      1549            0.0000000000
      4617      1512  TIP3      H1             13.8193464810       14.0130867438       29.3863418360  SOLV      1549            0.0000000000
      4618      1512  TIP3      H2             15.0375864810       14.8607467438       29.0876218360  SOLV      1549            0.0000000000
      4619      1513  TIP3      OH2            15.0616764810        2.2412267438       30.6420418360  SOLV      1550            0.0000000000
      4620      1513  TIP3      H1             14.3255964810        2.8519367438       30.6041718360  SOLV      1550            0.0000000000
      4621      1513  TIP3      H2             15.7450764810        2.6561267438       30.1156818360  SOLV      1550            0.0000000000
      4622      1514  TIP3      OH2             8.0648164810        0.3279567438       28.1078418360  SOLV      1551            0.0000000000
      4623      1514  TIP3      H1              7.9472364810       -0.6204432562       28.0536718360  SOLV      1551            0.0000000000
      4624      1514  TIP3      H2              7.2098264810        0.6605667438       28.3809518360  SOLV      1551            0.0000000000
      4625      1515  TIP3      OH2            13.0130964810       15.7360467438       25.8498118360  SOLV      1552            0.0000000000
      4626      1515  TIP3      H1             13.4383264810       15.0288367438       25.3647718360  SOLV      1552            0.0000000000
      4627      1515  TIP3      H2             13.3300964810       16.5373167438       25.4330318360  SOLV      1552            0.0000000000
      4628      1516  TIP3      OH2            14.1727464810       13.6368967438       24.3584718360  SOLV      1553            0.0000000000
      4629      1516  TIP3      H1             13.9152264810       12.9469067438       23.7470618360  SOLV      1553            0.0000000000
      4630      1516  TIP3      H2             14.2438264810       13.1940167438       25.2040618360  SOLV      1553            0.0000000000
      4631      1517  TIP3      OH2            15.8587664810       12.2035667438       32.8358218360  SOLV      1554            0.0000000000
      4632      1517  TIP3      H1             15.9983964810       11.6118167438       32.0965218360  SOLV      1554            0.0000000000
      4633      1517  TIP3      H2             16.0260464810       13.0761567438       32.4797018360  SOLV      1554            0.0000000000
      4634      1518  TIP3      OH2            10.3313064810        9.1655167438       22.6084218360  SOLV      1555            0.0000000000
      4635      1518  TIP3      H1              9.6198564810        9.7004867438       22.2564718360  SOLV      1555            0.0000000000
      4636      1518  TIP3      H2             11.0222664810        9.2207267438       21.9483118360  SOLV      1555            0.0000000000
      4637      1519  TIP3      OH2            10.3852264810        7.6229467438       19.6469218360  SOLV      1556            0.0000000000
      4638      1519  TIP3      H1             11.0862164810        7.6456367438       20.2983218360  SOLV      1556            0.0000000000
      4639      1519  TIP3      H2             10.6875164810        6.9949167438       18.9908518360  SOLV      1556            0.0000000000
      4640      1520  TIP3      OH2            17.7006964810        8.5433667438       30.9018618360  SOLV      1557            0.0000000000
      4641      1520  TIP3      H1             17.0481064810        9.2379267438       30.9909518360  SOLV      1557            0.0000000000
      4642      1520  TIP3      H2             18.1657264810        8.7534567438       30.0920218360  SOLV      1557            0.0000000000
      4643      1521  TIP3      OH2            13.7370764810        9.3748467438       23.5600118360  SOLV      1558            0.0000000000
      4644      1521  TIP3      H1             13.0051764810        9.6032167438       24.1330718360  SOLV      1558            0.0000000000
      4645      1521  TIP3      H2             14.1842964810        8.6611167438       24.0147618360  SOLV      1558            0.0000000000
      4646      1522  TIP3      OH2            13.6344264810        7.5491067438       32.6277118360  SOLV      1559            0.0000000000
      4647      1522  TIP3      H1             13.7143364810        8.3125467438       33.1995618360  SOLV      1559            0.0000000000
      4648      1522  TIP3      H2             13.0331964810        7.8283467438       31.9372218360  SOLV      1559            0.0000000000
      4649      1523  TIP3      OH2             5.3824464810       10.0054667438       25.4425118360  SOLV      1560            0.0000000000
      4650      1523  TIP3      H1              5.0519664810        9.6348067438       24.6242118360  SOLV      1560            0.0000000000
      4651      1523  TIP3      H2              5.9708564810        9.3348667438       25.7893418360  SOLV      1560            0.0000000000
      4652      1524  TIP3      OH2             6.7491964810       13.4335267438       28.1237318360  SOLV      1561            0.0000000000
      4653      1524  TIP3      H1              6.6543264810       12.8548367438       27.3671918360  SOLV      1561            0.0000000000
      4654      1524  TIP3      H2              7.4785564810       13.0620967438       28.6200118360  SOLV      1561            0.0000000000
      4655      1525  TIP3      OH2             5.7489964810        8.7740267438       29.0760118360  SOLV      1562            0.0000000000
      4656      1525  TIP3      H1              6.3142464810        8.8954467438       28.3131318360  SOLV      1562            0.0000000000
      4657      1525  TIP3      H2              6.0678864810        9.4115267438       29.7148618360  SOLV      1562            0.0000000000
      4658      1526  TIP3      OH2            12.0582164810       14.2772167438       29.8100618360  SOLV      1563            0.0000000000
      4659      1526  TIP3      H1             11.8178764810       14.9395267438       30.4579818360  SOLV      1563            0.0000000000
      4660      1526  TIP3      H2             11.8600364810       13.4427367438       30.2350218360  SOLV      1563            0.0000000000
      4661      1527  TIP3      OH2             6.6290664810       13.1732967438       33.7932018360  SOLV      1564            0.0000000000
      4662      1527  TIP3      H1              6.3178164810       13.9556167438       34.2485218360  SOLV      1564            0.0000000000
      4663      1527  TIP3      H2              5.9790864810       13.0202067438       33.1074018360  SOLV      1564            0.0000000000
      4664      1528  TIP3      OH2            12.6080264810        8.5371367438       21.2451318360  SOLV      1565            0.0000000000
      4665      1528  TIP3      H1             13.1875764810        8.6871667438       21.9920218360  SOLV      1565            0.0000000000
      4666      1528  TIP3      H2             13.0220264810        9.0078767438       20.5217718360  SOLV      1565            0.0000000000
      4667      1529  TIP3      OH2             3.5490564810        9.3714067438       33.0217718360  SOLV      1566            0.0000000000
      4668      1529  TIP3      H1              3.6193764810       10.0220867438       33.7202718360  SOLV      1566            0.0000000000
      4669      1529  TIP3      H2              2.6582764810        9.4741567438       32.6868618360  SOLV      1566            0.0000000000
      4670      1530  TIP3      OH2            10.3345164810       15.2739867438       24.6804418360  SOLV      1567            0.0000000000
      4671      1530  TIP3      H1             10.8082764810       15.5696167438       25.4578618360  SOLV      1567            0.0000000000
      4672      1530  TIP3      H2              9.7714464810       16.0121467438       24.4474018360  SOLV      1567            0.0000000000
      4673      1531  TIP3      OH2             4.8686564810       15.2447967438       34.5565818360  SOLV      1568            0.0000000000
      4674      1531  TIP3      H1              4.8761864810       15.1087667438       33.6091318360  SOLV      1568            0.0000000000
      4675      1531  TIP3      H2              3.9526964810       15.1276067438       34.8085818360  SOLV      1568            0.0000000000
      4676      1532  TIP3      OH2            16.3068664810        0.2871767438       21.0581018360  SOLV      1569            0.0000000000
      4677      1532  TIP3      H1             15.4069364810        0.4260767438       21.3531618360  SOLV      1569            0.0000000000
      4678      1532  TIP3      H2             16.5587064810        1.1186367438       20.6562718360  SOLV      1569            0.0000000000
      4679      1533  TIP3      OH2             4.3727164810        9.0748967438       23.0317918360  SOLV      1570            0.0000000000
      4680      1533  TIP3      H1              4.0808464810        9.8430667438       22.5409218360  SOLV      1570            0.0000000000
      4681      1533  TIP3      H2              3.6982364810        8.4155167438       22.8689318360  SOLV      1570            0.0000000000
      4682      1534  TIP3      OH2            17.4960064810       14.6534167438       19.4344918360  SOLV      1571            0.0000000000
      4683      1534  TIP3      H1             17.5693564810       15.5924367438       19.6050218360  SOLV      1571            0.0000000000
      4684      1534  TIP3      H2             18.4015164810       14.3482767438       19.3782218360  SOLV      1571            0.0000000000
      4685      1535  TIP3      OH2             0.4657264810       11.4378167438       31.8467718360  SOLV      1572            0.0000000000
      4686      1535  TIP3      H1             -0.0354335190       11.4097567438       31.0317418360  SOLV      1572            0.0000000000
      4687      1535  TIP3      H2              0.4710964810       10.5321367438       32.1565018360  SOLV      1572            0.0000000000
      4688      1536  TIP3      OH2             0.2159964810       14.2181967438       28.7307918360  SOLV      1573            0.0000000000
      4689      1536  TIP3      H1              1.1620564810       14.0738967438       28.7117418360  SOLV      1573            0.0000000000
      4690      1536  TIP3      H2              0.1036264810       15.0024767438       29.2679118360  SOLV      1573            0.0000000000
      4691      1537  TIP3      OH2            18.4138464810       14.8841667438       34.4131618360  SOLV      1574            0.0000000000
      4692      1537  TIP3      H1             18.3645264810       13.9289767438       34.3759218360  SOLV      1574            0.0000000000
      4693      1537  TIP3      H2             17.5870764810       15.1516967438       34.8145418360  SOLV      1574            0.0000000000
      4694      1538  TIP3      OH2             9.3922464810       14.4580867438       33.2893018360  SOLV      1575            0.0000000000
      4695      1538  TIP3      H1              9.4797064810       15.2845467438       33.7642118360  SOLV      1575            0.0000000000
      4696      1538  TIP3      H2              8.5287564810       14.1284667438       33.5382318360  SOLV      1575            0.0000000000
      4697      1539  TIP3      OH2             9.8068264810       18.2304567438       23.0953618360  SOLV      1576            0.0000000000
      4698      1539  TIP3      H1              9.7314264810       18.1091767438       22.1488818360  SOLV      1576            0.0000000000
      4699      1539  TIP3      H2              9.8396964810       19.1797267438       23.2138218360  SOLV      1576            0.0000000000
      4700      1540  TIP3      OH2             3.4602064810       17.0191567438       24.8762618360  SOLV      1577            0.0000000000
      4701      1540  TIP3      H1              3.6122464810       16.6711967438       25.7549118360  SOLV      1577            0.0000000000
      4702      1540  TIP3      H2              2.6092464810       16.6628867438       24.6209818360  SOLV      1577            0.0000000000
      4703      1541  TIP3      OH2            12.9084264810       17.3844767438       20.0976018360  SOLV      1578            0.0000000000
      4704      1541  TIP3      H1             13.2832664810       16.6400867438       19.6268618360  SOLV      1578            0.0000000000
      4705      1541  TIP3      H2             12.9127964810       17.1145367438       21.0159318360  SOLV      1578            0.0000000000
      4706      1542  TIP3      OH2            12.5772364810       17.3101867438       22.8468218360  SOLV      1579            0.0000000000
      4707      1542  TIP3      H1             11.6422164810       17.4103767438       23.0255218360  SOLV      1579            0.0000000000
      4708      1542  TIP3      H2             12.8574264810       16.6007867438       23.4251418360  SOLV      1579            0.0000000000
      4709      1543  TIP3      OH2            15.5658264810        6.3774167438       34.8933818360  SOLV      1580            0.0000000000
      4710      1543  TIP3      H1             15.1585064810        6.8579767438       34.1727118360  SOLV      1580            0.0000000000
      4711      1543  TIP3      H2             15.6063964810        5.4720167438       34.5854618360  SOLV      1580            0.0000000000
      4712      1544  TIP3      OH2             2.7147764810       12.7613567438       32.8900518360  SOLV      1581            0.0000000000
      4713      1544  TIP3      H1              2.9309064810       12.3999167438       33.7496318360  SOLV      1581            0.0000000000
      4714      1544  TIP3      H2              1.8592464810       12.3867367438       32.6804018360  SOLV      1581            0.0000000000
      4715      1545  TIP3      OH2             5.3335764810        1.2314067438       28.8854718360  SOLV      1582            0.0000000000
      4716      1545  TIP3      H1              4.4719464810        1.1442267438       28.4777618360  SOLV      1582            0.0000000000
      4717      1545  TIP3      H2              5.3111464810        2.0874167438       29.3132318360  SOLV      1582            0.0000000000
      4718      1546  TIP3      OH2             9.9963564810        0.9534467438       32.2601718360  SOLV      1583            0.0000000000
      4719      1546  TIP3      H1             10.4166664810        0.5381567438       33.0132318360  SOLV      1583            0.0000000000
      4720      1546  TIP3      H2              9.0633164810        0.7747767438       32.3773718360  SOLV      1583            0.0000000000
      4721      1547  TIP3      OH2            13.3228464810        4.7089667438       33.1136218360  SOLV      1584            0.0000000000
      4722      1547  TIP3      H1             12.8087964810        4.5831867438       33.9112218360  SOLV      1584            0.0000000000
      4723      1547  TIP3      H2             13.1673164810        5.6212767438       32.8692418360  SOLV      1584            0.0000000000
      4724      1548  TIP3      OH2            14.0853364810        9.5699667438       18.8749218360  SOLV      1585            0.0000000000
      4725      1548  TIP3      H1             14.1274164810        9.3473567438       17.9449218360  SOLV      1585            0.0000000000
      4726      1548  TIP3      H2             14.9345464810        9.9686767438       19.0649118360  SOLV      1585            0.0000000000
      4727      1549  TIP3      OH2             9.6580864810        3.4457867438       19.5452518360  SOLV      1586            0.0000000000
      4728      1549  TIP3      H1              9.4045664810        3.4649467438       20.4680618360  SOLV      1586            0.0000000000
      4729      1549  TIP3      H2              9.4012964810        2.5743267438       19.2438718360  SOLV      1586            0.0000000000
      4730      1550  TIP3      OH2             5.4245864810        6.1968567438       29.9804918360  SOLV      1587            0.0000000000
      4731      1550  TIP3      H1              4.7827964810        6.1565867438       30.6895018360  SOLV      1587            0.0000000000
      4732      1550  TIP3      H2              5.4617864810        7.1233267438       29.7427918360  SOLV      1587            0.0000000000
      4733      1551  TIP3      OH2             5.4214964810        6.4178667438       24.8924918360  SOLV      1588            0.0000000000
      4734      1551  TIP3      H1              4.5287864810        6.0774767438       24.8338718360  SOLV      1588            0.0000000000
      4735      1551  TIP3      H2              5.8721564810        6.0409567438       24.1368118360  SOLV      1588            0.0000000000
      4736      1552  TIP3      OH2            10.9570464810        6.8338967438       23.7095718360  SOLV      1589            0.0000000000
      4737      1552  TIP3      H1             10.5480764810        7.6487567438       23.4180518360  SOLV      1589            0.0000000000
      4738      1552  TIP3      H2             11.6776664810        6.6939067438       23.0952818360  SOLV      1589            0.0000000000
      4739      1553  TIP3      OH2            10.0592064810        7.0095367438       35.1976418360  SOLV      1590            0.0000000000
      4740      1553  TIP3      H1              9.4965864810        6.3046967438       35.5184218360  SOLV      1590            0.0000000000
      4741      1553  TIP3      H2             10.8855464810        6.8887267438       35.6654018360  SOLV      1590            0.0000000000
      4742      1554  TIP3      OH2            11.9618164810        6.2799367438       26.5235418360  SOLV      1591            0.0000000000
      4743      1554  TIP3      H1             11.7662664810        6.8856167438       25.8086018360  SOLV      1591            0.0000000000
      4744      1554  TIP3      H2             12.1430764810        5.4464567438       26.0891718360  SOLV      1591            0.0000000000
      4745      1555  TIP3      OH2             3.1746364810        6.5172067438       31.8476918360  SOLV      1592            0.0000000000
      4746      1555  TIP3      H1              3.1365764810        6.9173667438       32.7164018360  SOLV      1592            0.0000000000
      4747      1555  TIP3      H2              2.6837464810        5.7004467438       31.9379818360  SOLV      1592            0.0000000000
      4748      1556  TIP3      OH2             6.5403764810        3.8914367438       18.6462918360  SOLV      1593            0.0000000000
      4749      1556  TIP3      H1              6.1094464810        3.4464467438       19.3760318360  SOLV      1593            0.0000000000
      4750      1556  TIP3      H2              5.8222464810        4.2630667438       18.1340418360  SOLV      1593            0.0000000000
      4751      1557  TIP3      OH2            -0.2172835190        3.6333867438       25.6981618360  SOLV      1594            0.0000000000
      4752      1557  TIP3      H1              0.4134864810        3.6045967438       26.4175518360  SOLV      1594            0.0000000000
      4753      1557  TIP3      H2              0.2321464810        3.2082567438       24.9677518360  SOLV      1594            0.0000000000
      4754      1558  TIP3      OH2             1.0569264810        4.3795867438       21.1222018360  SOLV      1595            0.0000000000
      4755      1558  TIP3      H1              1.5310964810        4.9705767438       20.5372918360  SOLV      1595            0.0000000000
      4756      1558  TIP3      H2              0.3395664810        4.9098767438       21.4692118360  SOLV      1595            0.0000000000
      4757      1559  TIP3      OH2            11.2257364810        7.9180667438       31.1947818360  SOLV      1596            0.0000000000
      4758      1559  TIP3      H1             11.5492164810        7.2870367438       30.5518318360  SOLV      1596            0.0000000000
      4759      1559  TIP3      H2             10.7856664810        7.3832867438       31.8555218360  SOLV      1596            0.0000000000
      4760      1560  TIP3      OH2             8.0030264810        3.8456167438       25.9789018360  SOLV      1597            0.0000000000
      4761      1560  TIP3      H1              7.0921364810        3.9022967438       26.2675018360  SOLV      1597            0.0000000000
      4762      1560  TIP3      H2              8.5083164810        3.7851667438       26.7896218360  SOLV      1597            0.0000000000
      4763      1561  TIP3      OH2             2.8313664810        5.4742467438       24.8056618360  SOLV      1598            0.0000000000
      4764      1561  TIP3      H1              1.9421664810        5.5737967438       24.4656218360  SOLV      1598            0.0000000000
      4765      1561  TIP3      H2              3.1278564810        4.6325467438       24.4594518360  SOLV      1598            0.0000000000
      4766      1562  TIP3      OH2             6.4845464810        5.4745067438       22.4621218360  SOLV      1599            0.0000000000
      4767      1562  TIP3      H1              7.4160964810        5.6035067438       22.6404318360  SOLV      1599            0.0000000000
      4768      1562  TIP3      H2              6.2695764810        6.1439367438       21.8125918360  SOLV      1599            0.0000000000
      4769      1563  TIP3      OH2            12.4082164810        3.0802467438       29.2430818360  SOLV      1600            0.0000000000
      4770      1563  TIP3      H1             11.7313764810        3.2115567438       29.9070518360  SOLV      1600            0.0000000000
      4771      1563  TIP3      H2             11.9227064810        2.9251967438       28.4328518360  SOLV      1600            0.0000000000
      4772      1564  TIP3      OH2             5.1585664810        6.6687267438       20.0287318360  SOLV      1601            0.0000000000
      4773      1564  TIP3      H1              4.6160764810        6.2891067438       19.3374918360  SOLV      1601            0.0000000000
      4774      1564  TIP3      H2              5.9920564810        6.8631967438       19.6001418360  SOLV      1601            0.0000000000
      4775      1565  TIP3      OH2            15.6957264810       18.7517867438       35.5198418360  SOLV      1602            0.0000000000
      4776      1565  TIP3      H1             15.8955964810       19.1759767438       34.6853718360  SOLV      1602            0.0000000000
      4777      1565  TIP3      H2             16.3510964810       19.0956067438       36.1268818360  SOLV      1602            0.0000000000
      4778      1566  TIP3      OH2             3.2937064810       11.2259167438       35.1278918360  SOLV      1603            0.0000000000
      4779      1566  TIP3      H1              4.0259464810       11.4805067438       35.6893418360  SOLV      1603            0.0000000000
      4780      1566  TIP3      H2              2.5135764810       11.4304567438       35.6434318360  SOLV      1603            0.0000000000
      4781      1567  TIP3      OH2             9.3229964810        6.6329167438       27.8658618360  SOLV      1604            0.0000000000
      4782      1567  TIP3      H1              9.8873364810        6.0865767438       27.3188218360  SOLV      1604            0.0000000000
      4783      1567  TIP3      H2              9.1753364810        6.1111067438       28.6546218360  SOLV      1604            0.0000000000
      4784      1568  TIP3      OH2             4.3249664810        2.7695267438       24.2843418360  SOLV      1605            0.0000000000
      4785      1568  TIP3      H1              4.0079164810        1.8670567438       24.2488818360  SOLV      1605            0.0000000000
      4786      1568  TIP3      H2              5.1063764810        2.7712667438       23.7315018360  SOLV      1605            0.0000000000
      4787      1569  TIP3      OH2             7.9495864810        5.0215267438       30.2799018360  SOLV      1606            0.0000000000
      4788      1569  TIP3      H1              7.1141164810        5.4754767438       30.3901418360  SOLV      1606            0.0000000000
      4789      1569  TIP3      H2              8.4736464810        5.2973767438       31.0318918360  SOLV      1606            0.0000000000
      4790      1570  TIP3      OH2             8.4938464810       11.2342967438       21.9645418360  SOLV      1607            0.0000000000
      4791      1570  TIP3      H1              7.7489464810       10.7268267438       21.6423318360  SOLV      1607            0.0000000000
      4792      1570  TIP3      H2              8.3595664810       11.2830967438       22.9110218360  SOLV      1607            0.0000000000
      4793      1571  TIP3      OH2            15.6437364810       10.3671167438       30.7513018360  SOLV      1608            0.0000000000
      4794      1571  TIP3      H1             16.2856164810       10.8237467438       30.2075218360  SOLV      1608            0.0000000000
      4795      1571  TIP3      H2             14.8134264810       10.4803567438       30.2887118360  SOLV      1608            0.0000000000
      4796      1572  TIP3      OH2            12.3915264810        4.0482867438       20.1638018360  SOLV      1609            0.0000000000
      4797      1572  TIP3      H1             11.4529464810        4.1598467438       20.0126818360  SOLV      1609            0.0000000000
      4798      1572  TIP3      H2             12.6887364810        4.9049767438       20.4703718360  SOLV      1609            0.0000000000
      4799      1573  TIP3      OH2            10.0130564810       11.4186267438       33.2014518360  SOLV      1610            0.0000000000
      4800      1573  TIP3      H1              9.6676664810       11.0368667438       34.0084118360  SOLV      1610            0.0000000000
      4801      1573  TIP3      H2              9.8130664810       12.3519867438       33.2727418360  SOLV      1610            0.0000000000
      4802      1574  TIP3      OH2            13.1098764810        5.9155567438       21.8245418360  SOLV      1611            0.0000000000
      4803      1574  TIP3      H1             14.0017764810        5.7780567438       22.1436618360  SOLV      1611            0.0000000000
      4804      1574  TIP3      H2             13.1662364810        6.7061667438       21.2878918360  SOLV      1611            0.0000000000
      4805      1575  TIP3      OH2             3.6186764810       10.5292967438       27.7343318360  SOLV      1612            0.0000000000
      4806      1575  TIP3      H1              4.3633964810       10.5268667438       27.1329818360  SOLV      1612            0.0000000000
      4807      1575  TIP3      H2              3.6963364810        9.7056767438       28.2158418360  SOLV      1612            0.0000000000
      4808      1576  TIP3      OH2            10.6192564810       12.6927267438       20.9900018360  SOLV      1613            0.0000000000
      4809      1576  TIP3      H1             10.3240964810       13.5195167438       21.3714818360  SOLV      1613            0.0000000000
      4810      1576  TIP3      H2              9.9162564810       12.0734167438       21.1861418360  SOLV      1613            0.0000000000
      4811      1577  TIP3      OH2             0.6266464810        8.9899867438       33.0491818360  SOLV      1614            0.0000000000
      4812      1577  TIP3      H1              0.8495064810        8.5719467438       33.8809318360  SOLV      1614            0.0000000000
      4813      1577  TIP3      H2              0.0246564810        8.3774867438       32.6264618360  SOLV      1614            0.0000000000
      4814      1578  TIP3      OH2             7.6431364810        8.5069767438       35.2621518360  SOLV      1615            0.0000000000
      4815      1578  TIP3      H1              7.3472164810        8.3412767438       34.3670618360  SOLV      1615            0.0000000000
      4816      1578  TIP3      H2              8.5746564810        8.2870067438       35.2515418360  SOLV      1615            0.0000000000
      4817      1579  TIP3      OH2            12.2634164810       13.8801767438       33.1519518360  SOLV      1616            0.0000000000
      4818      1579  TIP3      H1             11.3628464810       14.0634367438       32.8843418360  SOLV      1616            0.0000000000
      4819      1579  TIP3      H2             12.2975264810       14.1391067438       34.0728318360  SOLV      1616            0.0000000000
      4820      1580  TIP3      OH2            17.9947464810        6.1249667438       21.5192118360  SOLV      1617            0.0000000000
      4821      1580  TIP3      H1             17.4403764810        5.7287667438       20.8469618360  SOLV      1617            0.0000000000
      4822      1580  TIP3      H2             18.0951064810        7.0354867438       21.2415418360  SOLV      1617            0.0000000000
      4823      1581  TIP3      OH2            17.9579464810       11.9251367438       34.3563618360  SOLV      1618            0.0000000000
      4824      1581  TIP3      H1             17.1067964810       12.1635167438       33.9890018360  SOLV      1618            0.0000000000
      4825      1581  TIP3      H2             18.5482864810       11.9084567438       33.6030718360  SOLV      1618            0.0000000000
      4826      1582  TIP3      OH2            16.2899164810       14.9110067438       21.9844218360  SOLV      1619            0.0000000000
      4827      1582  TIP3      H1             15.9170264810       14.0853867438       22.2934818360  SOLV      1619            0.0000000000
      4828      1582  TIP3      H2             16.5672664810       14.7279467438       21.0867618360  SOLV      1619            0.0000000000
      4829      1583  TIP3      OH2            13.4503064810        9.7189567438       29.0056118360  SOLV      1620            0.0000000000
      4830      1583  TIP3      H1             12.5219964810        9.4871467438       28.9785418360  SOLV      1620            0.0000000000
      4831      1583  TIP3      H2             13.9014164810        8.9419367438       28.6754918360  SOLV      1620            0.0000000000
      4832      1584  TIP3      OH2             5.9936164810       14.0471167438       25.1384818360  SOLV      1621            0.0000000000
      4833      1584  TIP3      H1              6.5208364810       14.8205567438       24.9383618360  SOLV      1621            0.0000000000
      4834      1584  TIP3      H2              5.1134664810       14.2720367438       24.8368818360  SOLV      1621            0.0000000000
      4835      1585  TIP3      OH2             1.7483864810        8.9095267438       19.7257218360  SOLV      1622            0.0000000000
      4836      1585  TIP3      H1              2.3643764810        9.5362467438       20.1052018360  SOLV      1622            0.0000000000
      4837      1585  TIP3      H2              0.8866464810        9.2255067438       19.9973718360  SOLV      1622            0.0000000000
      4838      1586  TIP3      OH2             7.4208464810       11.7101067438       24.7149118360  SOLV      1623            0.0000000000
      4839      1586  TIP3      H1              7.1798464810       12.6355467438       24.7564418360  SOLV      1623            0.0000000000
      4840      1586  TIP3      H2              6.6802064810       11.2512367438       25.1113018360  SOLV      1623            0.0000000000
      4841      1587  TIP3      OH2             7.9355064810       15.8594667438       31.0300218360  SOLV      1624            0.0000000000
      4842      1587  TIP3      H1              8.2979764810       16.7140267438       30.7964618360  SOLV      1624            0.0000000000
      4843      1587  TIP3      H2              8.4670264810       15.5676267438       31.7706518360  SOLV      1624            0.0000000000
      4844      1588  TIP3      OH2             6.1039264810       16.7318667438       24.2601318360  SOLV      1625            0.0000000000
      4845      1588  TIP3      H1              5.1539764810       16.8376067438       24.3114618360  SOLV      1625            0.0000000000
      4846      1588  TIP3      H2              6.4557364810       17.5526067438       24.6048818360  SOLV      1625            0.0000000000
      4847      1589  TIP3      OH2            11.4795864810       11.9585367438       30.7305818360  SOLV      1626            0.0000000000
      4848      1589  TIP3      H1             11.0537164810       11.7307067438       31.5569818360  SOLV      1626            0.0000000000
      4849      1589  TIP3      H2             12.0601664810       11.2197167438       30.5481118360  SOLV      1626            0.0000000000
      4850      1590  TIP3      OH2            13.6824764810       12.8875867438       19.8044818360  SOLV      1627            0.0000000000
      4851      1590  TIP3      H1             14.0357864810       12.5075667438       20.6088318360  SOLV      1627            0.0000000000
      4852      1590  TIP3      H2             12.7338264810       12.7940667438       19.8914118360  SOLV      1627            0.0000000000
      4853      1591  TIP3      OH2            14.1380064810       16.5104867438       33.2000618360  SOLV      1628            0.0000000000
      4854      1591  TIP3      H1             13.5363264810       15.9547767438       32.7046918360  SOLV      1628            0.0000000000
      4855      1591  TIP3      H2             14.4193764810       17.1774667438       32.5738018360  SOLV      1628            0.0000000000
      4856      1592  TIP3      OH2            18.1859164810       17.3668367438       20.0055018360  SOLV      1629            0.0000000000
      4857      1592  TIP3      H1             18.9297064810       17.9528867438       19.8656618360  SOLV      1629            0.0000000000
      4858      1592  TIP3      H2             17.4917264810       17.9354167438       20.3387418360  SOLV      1629            0.0000000000
      4859      1593  TIP3      OH2             2.2605964810        3.7432567438       32.6073218360  SOLV      1630            0.0000000000
      4860      1593  TIP3      H1              1.3678264810        4.0817967438       32.5397218360  SOLV      1630            0.0000000000
      4861      1593  TIP3      H2              2.1618764810        2.8878667438       33.0254018360  SOLV      1630            0.0000000000
      4862      1594  TIP3      OH2            14.5484064810       11.5597867438       22.0312718360  SOLV      1631            0.0000000000
      4863      1594  TIP3      H1             14.2711664810       10.8317167438       22.5873818360  SOLV      1631            0.0000000000
      4864      1594  TIP3      H2             15.4757064810       11.6789867438       22.2365318360  SOLV      1631            0.0000000000
      4865      1595  TIP3      OH2             1.9117964810       15.5476967438       31.0422618360  SOLV      1632            0.0000000000
      4866      1595  TIP3      H1              2.1288264810       14.6159367438       31.0112318360  SOLV      1632            0.0000000000
      4867      1595  TIP3      H2              2.1581464810       15.8221967438       31.9255418360  SOLV      1632            0.0000000000
      4868      1596  TIP3      OH2             7.7732564810       13.9991967438       18.2514818360  SOLV      1633            0.0000000000
      4869      1596  TIP3      H1              8.0122364810       13.2510067438       17.7043718360  SOLV      1633            0.0000000000
      4870      1596  TIP3      H2              7.5043864810       13.6113667438       19.0842618360  SOLV      1633            0.0000000000
      4871      1597  TIP3      OH2             6.7103164810       13.5695767438       20.7077418360  SOLV      1634            0.0000000000
      4872      1597  TIP3      H1              6.8571164810       13.0495567438       21.4978318360  SOLV      1634            0.0000000000
      4873      1597  TIP3      H2              6.7074864810       14.4763367438       21.0143318360  SOLV      1634            0.0000000000
      4874      1598  TIP3      OH2             3.1634264810       10.8219067438       21.2182818360  SOLV      1635            0.0000000000
      4875      1598  TIP3      H1              2.4773564810       11.1741567438       21.7852518360  SOLV      1635            0.0000000000
      4876      1598  TIP3      H2              3.6862164810       11.5848667438       20.9717118360  SOLV      1635            0.0000000000
      4877      1599  TIP3      OH2            10.9949364810        3.4842867438       31.4971818360  SOLV      1636            0.0000000000
      4878      1599  TIP3      H1             11.6937264810        3.5581567438       32.1471518360  SOLV      1636            0.0000000000
      4879      1599  TIP3      H2             10.6140764810        2.6197867438       31.6514718360  SOLV      1636            0.0000000000
      4880      1600  TIP3      OH2            11.7794264810        3.1364567438       22.5944118360  SOLV      1637            0.0000000000
      4881      1600  TIP3      H1             11.9992564810        3.6079967438       21.7909518360  SOLV      1637            0.0000000000
      4882      1600  TIP3      H2             12.3378264810        3.5307167438       23.2644718360  SOLV      1637            0.0000000000
      4883      1601  TIP3      OH2             9.4480364810       15.2669367438       21.4571618360  SOLV      1638            0.0000000000
      4884      1601  TIP3      H1              8.6316464810       15.7639067438       21.5095918360  SOLV      1638            0.0000000000
      4885      1601  TIP3      H2              9.9776664810       15.7422867438       20.8170418360  SOLV      1638            0.0000000000
      4886      1602  TIP3      OH2             8.9794164810        4.8643367438       23.4292518360  SOLV      1639            0.0000000000
      4887      1602  TIP3      H1              9.7916764810        5.3686567438       23.4754218360  SOLV      1639            0.0000000000
      4888      1602  TIP3      H2              8.7347164810        4.7193067438       24.3432118360  SOLV      1639            0.0000000000
      4889      1603  TIP3      OH2             9.5150564810        5.8506067438       32.6139118360  SOLV      1640            0.0000000000
      4890      1603  TIP3      H1              9.6340864810        6.4241467438       33.3709518360  SOLV      1640            0.0000000000
      4891      1603  TIP3      H2             10.1705164810        5.1625467438       32.7286918360  SOLV      1640            0.0000000000
      4892      1604  TIP3      OH2             9.8630864810        1.9456367438       24.3673618360  SOLV      1641            0.0000000000
      4893      1604  TIP3      H1              9.5164364810        2.5626967438       25.0117918360  SOLV      1641            0.0000000000
      4894      1604  TIP3      H2             10.5217764810        2.4462067438       23.8859118360  SOLV      1641            0.0000000000
      4895      1605  TIP3      OH2             6.7863464810       16.3106567438       21.4388518360  SOLV      1642            0.0000000000
      4896      1605  TIP3      H1              6.9472164810       17.1104067438       20.9381118360  SOLV      1642            0.0000000000
      4897      1605  TIP3      H2              6.5891264810       16.6172567438       22.3239118360  SOLV      1642            0.0000000000
      4898      1606  TIP3      OH2             5.5207864810        3.0085767438       21.0546118360  SOLV      1643            0.0000000000
      4899      1606  TIP3      H1              5.4372664810        3.8968867438       21.4012518360  SOLV      1643            0.0000000000
      4900      1606  TIP3      H2              6.4108164810        2.7432467438       21.2862918360  SOLV      1643            0.0000000000
      4901      1607  TIP3      OH2            15.7196364810        3.7576367438       33.4488818360  SOLV      1644            0.0000000000
      4902      1607  TIP3      H1             14.8032164810        4.0198067438       33.3612518360  SOLV      1644            0.0000000000
      4903      1607  TIP3      H2             16.0551364810        3.7545367438       32.5524118360  SOLV      1644            0.0000000000
      4904      1608  TIP3      OH2            14.3217364810        7.5077367438       27.5446118360  SOLV      1645            0.0000000000
      4905      1608  TIP3      H1             13.5241764810        7.0927567438       27.2161118360  SOLV      1645            0.0000000000
      4906      1608  TIP3      H2             14.7668464810        6.8171067438       28.0356618360  SOLV      1645            0.0000000000
      4907      1609  TIP3      OH2             3.7793164810       13.4357967438       20.1150618360  SOLV      1646            0.0000000000
      4908      1609  TIP3      H1              4.3714664810       14.1352767438       20.3913018360  SOLV      1646            0.0000000000
      4909      1609  TIP3      H2              4.2386164810       13.0027467438       19.3955218360  SOLV      1646            0.0000000000
      4910      1610  TIP3      OH2             2.0952364810        6.1000967438       19.2310018360  SOLV      1647            0.0000000000
      4911      1610  TIP3      H1              2.0504964810        7.0394067438       19.4097018360  SOLV      1647            0.0000000000
      4912      1610  TIP3      H2              1.2075564810        5.8645867438       18.9612118360  SOLV      1647            0.0000000000
      4913      1611  TIP3      OH2            15.4081964810       16.7639867438       29.1669618360  SOLV      1648            0.0000000000
      4914      1611  TIP3      H1             15.2526264810       17.4424267438       28.5098918360  SOLV      1648            0.0000000000
      4915      1611  TIP3      H2             16.3408364810       16.8359167438       29.3700218360  SOLV      1648            0.0000000000
      4916      1612  TIP3      OH2             2.9034364810        0.8817567438       27.9041018360  SOLV      1649            0.0000000000
      4917      1612  TIP3      H1              2.6744164810        0.9410067438       26.9766018360  SOLV      1649            0.0000000000
      4918      1612  TIP3      H2              2.4607764810        0.0903067438       28.2105118360  SOLV      1649            0.0000000000
      4919      1613  TIP3      OH2             1.8337664810       14.8224667438       24.0646818360  SOLV      1650            0.0000000000
      4920      1613  TIP3      H1              1.0016264810       15.2947367438       24.0918218360  SOLV      1650            0.0000000000
      4921      1613  TIP3      H2              2.3795964810       15.3322267438       23.4659918360  SOLV      1650            0.0000000000
      4922      1614  TIP3      OH2             1.1221364810       17.4348367438       35.3944818360  SOLV      1651            0.0000000000
      4923      1614  TIP3      H1              1.6623564810       17.2182367438       36.1544018360  SOLV      1651            0.0000000000
      4924      1614  TIP3      H2              0.6409364810       16.6294367438       35.2047318360  SOLV      1651            0.0000000000
      4925      1615  TIP3      OH2             5.7194764810       16.3542767438       37.0149018360  SOLV      1652            0.0000000000
      4926      1615  TIP3      H1              6.4871964810       15.8953567438       37.3558218360  SOLV      1652            0.0000000000
      4927      1615  TIP3      H2              5.6980964810       16.1282567438       36.0850218360  SOLV      1652            0.0000000000
      4928      1616  TIP3      OH2             9.8114364810       15.8623367438       18.3900818360  SOLV      1653            0.0000000000
      4929      1616  TIP3      H1              9.1675364810       15.2311967438       18.7114518360  SOLV      1653            0.0000000000
      4930      1616  TIP3      H2             10.5732664810       15.3311367438       18.1584318360  SOLV      1653            0.0000000000
      4931      1617  TIP3      OH2            12.2963464810       14.7343867438       35.7440518360  SOLV      1654            0.0000000000
      4932      1617  TIP3      H1             11.9452964810       13.8776867438       35.9870918360  SOLV      1654            0.0000000000
      4933      1617  TIP3      H2             13.0226664810       14.8770567438       36.3509518360  SOLV      1654            0.0000000000
      4934      1618  TIP3      OH2            14.4157264810       15.6793267438       18.6238818360  SOLV      1655            0.0000000000
      4935      1618  TIP3      H1             14.6987664810       14.8848467438       19.0765718360  SOLV      1655            0.0000000000
      4936      1618  TIP3      H2             15.1555164810       15.9124267438       18.0629918360  SOLV      1655            0.0000000000
      4937      1619  TIP3      OH2             1.0290864810       11.2452467438       36.3489118360  SOLV      1656            0.0000000000
      4938      1619  TIP3      H1              1.1731364810       10.3433167438       36.0625818360  SOLV      1656            0.0000000000
      4939      1619  TIP3      H2              0.2568264810       11.5314567438       35.8611418360  SOLV      1656            0.0000000000
      4940      1620  TIP3      OH2             5.3704564810       11.5888167438       18.4813718360  SOLV      1657            0.0000000000
      4941      1620  TIP3      H1              5.4348664810       10.7947767438       19.0120118360  SOLV      1657            0.0000000000
      4942      1620  TIP3      H2              6.0233764810       11.4700967438       17.7915718360  SOLV      1657            0.0000000000
      4943      1621  TIP3      OH2             7.6846964810       11.2150567438       35.7815518360  SOLV      1658            0.0000000000
      4944      1621  TIP3      H1              7.3560764810       11.4858667438       34.9242918360  SOLV      1658            0.0000000000
      4945      1621  TIP3      H2              7.8365164810       10.2740367438       35.6940518360  SOLV      1658            0.0000000000
      4946      1622  TIP3      OH2            10.7227964810       12.6359867438       18.2171718360  SOLV      1659            0.0000000000
      4947      1622  TIP3      H1             10.4542064810       12.8161967438       19.1180618360  SOLV      1659            0.0000000000
      4948      1622  TIP3      H2             10.5163564810       11.7106067438       18.0857518360  SOLV      1659            0.0000000000
      4949      1623  TIP3      OH2            13.4192164810       11.1307867438       33.1647818360  SOLV      1660            0.0000000000
      4950      1623  TIP3      H1             14.1646964810       11.7191567438       33.0451818360  SOLV      1660            0.0000000000
      4951      1623  TIP3      H2             12.6618964810       11.7127567438       33.2280918360  SOLV      1660            0.0000000000
      4952      1624  TIP3      OH2             1.8617364810        8.4455767438       35.7688418360  SOLV      1661            0.0000000000
      4953      1624  TIP3      H1              2.2698564810        7.5882367438       35.6479018360  SOLV      1661            0.0000000000
      4954      1624  TIP3      H2              1.6014964810        8.4597067438       36.6898718360  SOLV      1661            0.0000000000
      4955      1625  TIP3      OH2             6.5198364810        9.5614367438       20.7871718360  SOLV      1662            0.0000000000
      4956      1625  TIP3      H1              6.0600364810        9.0772667438       21.4730218360  SOLV      1662            0.0000000000
      4957      1625  TIP3      H2              6.7747064810        8.8929767438       20.1512218360  SOLV      1662            0.0000000000
      4958      1626  TIP3      OH2             5.8087664810        7.4541467438       33.1431318360  SOLV      1663            0.0000000000
      4959      1626  TIP3      H1              5.1903764810        8.1288067438       33.4236018360  SOLV      1663            0.0000000000
      4960      1626  TIP3      H2              6.1528864810        7.7755367438       32.3097518360  SOLV      1663            0.0000000000
      4961      1627  TIP3      OH2             7.5908764810        7.8046167438       19.0494918360  SOLV      1664            0.0000000000
      4962      1627  TIP3      H1              7.4103764810        7.6497367438       18.1223218360  SOLV      1664            0.0000000000
      4963      1627  TIP3      H2              8.5409264810        7.9124867438       19.0942818360  SOLV      1664            0.0000000000
      4964      1628  TIP3      OH2            10.8285864810        9.9256767438       36.4206118360  SOLV      1665            0.0000000000
      4965      1628  TIP3      H1             11.7817064810       10.0095867438       36.3932118360  SOLV      1665            0.0000000000
      4966      1628  TIP3      H2             10.6680464810        9.2138567438       37.0401018360  SOLV      1665            0.0000000000
      4967      1629  TIP3      OH2            16.9807064810       10.1590367438       18.4953018360  SOLV      1666            0.0000000000
      4968      1629  TIP3      H1             16.7071864810        9.7345867438       17.6821318360  SOLV      1666            0.0000000000
      4969      1629  TIP3      H2             17.0201164810       11.0904867438       18.2783418360  SOLV      1666            0.0000000000
      4970      1630  TIP3      OH2             6.1481364810        4.8092267438       34.2254418360  SOLV      1667            0.0000000000
      4971      1630  TIP3      H1              6.2982264810        4.0803567438       33.6234118360  SOLV      1667            0.0000000000
      4972      1630  TIP3      H2              6.1503764810        5.5863967438       33.6666618360  SOLV      1667            0.0000000000
      4973      1631  TIP3      OH2             6.5607064810        3.1788067438       31.7181818360  SOLV      1668            0.0000000000
      4974      1631  TIP3      H1              7.0964564810        3.6304767438       31.0661118360  SOLV      1668            0.0000000000
      4975      1631  TIP3      H2              5.7086664810        3.0707867438       31.2955918360  SOLV      1668            0.0000000000
      4976      1632  TIP3      OH2             8.1425464810        8.6184267438       31.9577018360  SOLV      1669            0.0000000000
      4977      1632  TIP3      H1              8.8930264810        8.4621767438       31.3844818360  SOLV      1669            0.0000000000
      4978      1632  TIP3      H2              7.8033764810        9.4700867438       31.6822518360  SOLV      1669            0.0000000000
      4979      1633  TIP3      OH2            12.5581664810        6.4336067438       36.9862318360  SOLV      1670            0.0000000000
      4980      1633  TIP3      H1             12.7502964810        5.5025467438       36.8746818360  SOLV      1670            0.0000000000
      4981      1633  TIP3      H2             13.4157964810        6.8585567438       36.9757718360  SOLV      1670            0.0000000000
      4982      1634  TIP3      OH2            13.8748864810        9.2221267438       35.0635018360  SOLV      1671            0.0000000000
      4983      1634  TIP3      H1             13.5933864810        9.9315867438       34.4858818360  SOLV      1671            0.0000000000
      4984      1634  TIP3      H2             14.8173164810        9.1494267438       34.9126218360  SOLV      1671            0.0000000000
      4985      1635  TIP3      OH2             4.6267664810        6.0075767438       36.1370018360  SOLV      1672            0.0000000000
      4986      1635  TIP3      H1              3.8596664810        5.4750567438       35.9267618360  SOLV      1672            0.0000000000
      4987      1635  TIP3      H2              5.3056664810        5.6976167438       35.5376318360  SOLV      1672            0.0000000000
      4988      1636  TIP3      OH2             7.3662564810        0.6353767438       32.1495418360  SOLV      1673            0.0000000000
      4989      1636  TIP3      H1              7.2682164810        1.5816967438       32.0441618360  SOLV      1673            0.0000000000
      4990      1636  TIP3      H2              6.6238764810        0.2627567438       31.6738918360  SOLV      1673            0.0000000000
      4991      1637  TIP3      OH2             8.6303064810        4.9569167438       35.7133818360  SOLV      1674            0.0000000000
      4992      1637  TIP3      H1              8.3948464810        4.7375867438       36.6148718360  SOLV      1674            0.0000000000
      4993      1637  TIP3      H2              7.8469964810        4.7500367438       35.2036318360  SOLV      1674            0.0000000000
      4994      1638  TIP3      OH2            11.3459664810        4.0842667438       34.7887318360  SOLV      1675            0.0000000000
      4995      1638  TIP3      H1             10.3985064810        4.1162367438       34.9210618360  SOLV      1675            0.0000000000
      4996      1638  TIP3      H2             11.6586364810        3.4589767438       35.4425518360  SOLV      1675            0.0000000000
      4997      1639  TIP3      OH2            12.9801164810        2.7183767438       36.7939218360  SOLV      1676            0.0000000000
      4998      1639  TIP3      H1             12.8832964810        1.7661067438       36.7881118360  SOLV      1676            0.0000000000
      4999      1639  TIP3      H2             12.6584264810        2.9870567438       37.6544718360  SOLV      1676            0.0000000000
      5000      1640  TIP3      OH2             2.8070464810        3.9279567438       35.8414718360  SOLV      1677            0.0000000000
      5001      1640  TIP3      H1              3.0187864810        3.2215667438       35.2312218360  SOLV      1677            0.0000000000
      5002      1640  TIP3      H2              2.6957964810        3.4905567438       36.6855918360  SOLV      1677            0.0000000000
      5003      1641  TIP3      OH2             7.9418164810        1.6119567438       36.8744518360  SOLV      1678            0.0000000000
      5004      1641  TIP3      H1              7.8100364810        1.1363367438       36.0543018360  SOLV      1678            0.0000000000
      5005      1641  TIP3      H2              7.3425564810        2.3563167438       36.8191618360  SOLV      1678            0.0000000000
      5006      1642  TIP3      OH2             7.4880464810       18.4949867438       20.0508518360  SOLV      1679            0.0000000000
      5007      1642  TIP3      H1              8.4211164810       18.6528567438       20.1946918360  SOLV      1679            0.0000000000
      5008      1642  TIP3      H2              7.2239264810       19.1702867438       19.4260018360  SOLV      1679            0.0000000000
      5009      1643  TIP3      OH2             1.0565364810       13.1313667438       19.5336618360  SOLV      1680            0.0000000000
      5010      1643  TIP3      H1              1.9704564810       13.2102567438       19.8070518360  SOLV      1680            0.0000000000
      5011      1643  TIP3      H2              1.0638464810       12.4443267438       18.8672218360  SOLV      1680            0.0000000000
      5012      1644  TIP3      OH2             0.5755164810       16.6049167438       26.4156718360  SOLV      1681            0.0000000000
      5013      1644  TIP3      H1              0.2411964810       15.7246467438       26.5876918360  SOLV      1681            0.0000000000
      5014      1644  TIP3      H2              0.7977564810       16.9504167438       27.2802318360  SOLV      1681            0.0000000000
      5015      1645  TIP3      OH2            18.1239964810       17.4145567438       29.3961518360  SOLV      1682            0.0000000000
      5016      1645  TIP3      H1             18.1026664810       17.5993967438       30.3350918360  SOLV      1682            0.0000000000
      5017      1645  TIP3      H2             18.8146164810       17.9829567438       29.0552918360  SOLV      1682            0.0000000000
      5018      1646  TIP3      OH2            17.6872864810       16.9816667438       32.3180618360  SOLV      1683            0.0000000000
      5019      1646  TIP3      H1             17.2001564810       16.2460767438       31.9468018360  SOLV      1683            0.0000000000
      5020      1646  TIP3      H2             18.2365564810       16.5880567438       32.9960018360  SOLV      1683            0.0000000000
      5021      1647  TIP3      OH2            16.1380164810       12.7714767438       36.9560918360  SOLV      1684            0.0000000000
      5022      1647  TIP3      H1             15.2721264810       12.6664467438       37.3503218360  SOLV      1684            0.0000000000
      5023      1647  TIP3      H2             16.5146064810       13.5298067438       37.4025618360  SOLV      1684            0.0000000000
      5024      1648  TIP3      OH2            17.4389864810       11.0278467438       22.4703418360  SOLV      1685            0.0000000000
      5025      1648  TIP3      H1             18.2891264810       11.4489367438       22.5975018360  SOLV      1685            0.0000000000
      5026      1648  TIP3      H2             17.4444964810       10.2878567438       23.0774818360  SOLV      1685            0.0000000000
      5027      1649  TIP3      OH2            17.8335464810        9.0815867438       24.2939118360  SOLV      1686            0.0000000000
      5028      1649  TIP3      H1             17.1070064810        8.6018467438       24.6916718360  SOLV      1686            0.0000000000
      5029      1649  TIP3      H2             18.4148764810        9.2870567438       25.0260718360  SOLV      1686            0.0000000000
      5030      1650  TIP3      OH2            17.5926664810       11.8663367438       29.2416718360  SOLV      1687            0.0000000000
      5031      1650  TIP3      H1             18.4260864810       11.4883367438       28.9610318360  SOLV      1687            0.0000000000
      5032      1650  TIP3      H2             17.7046964810       12.8094567438       29.1225818360  SOLV      1687            0.0000000000
      5033      1651  TIP3      OH2            16.0788964810       14.7440867438       31.5485118360  SOLV      1688            0.0000000000
      5034      1651  TIP3      H1             15.4314264810       15.0692367438       32.1740318360  SOLV      1688            0.0000000000
      5035      1651  TIP3      H2             15.5612964810       14.3038567438       30.8743418360  SOLV      1688            0.0000000000
      5036      1652  TIP3      OH2            18.1018564810        8.9824367438       20.6850418360  SOLV      1689            0.0000000000
      5037      1652  TIP3      H1             17.5799664810        9.3388467438       19.9661318360  SOLV      1689            0.0000000000
      5038      1652  TIP3      H2             18.0687764810        9.6572167438       21.3631318360  SOLV      1689            0.0000000000
      5039      1653  TIP3      OH2            16.4507564810        6.2219967438       19.2357518360  SOLV      1690            0.0000000000
      5040      1653  TIP3      H1             16.5471964810        6.8886967438       18.5557218360  SOLV      1690            0.0000000000
      5041      1653  TIP3      H2             16.3107164810        5.4066267438       18.7543018360  SOLV      1690            0.0000000000
      5042      1654  TIP3      OH2            15.6202264810        7.6022367438       24.8567818360  SOLV      1691            0.0000000000
      5043      1654  TIP3      H1             15.4701064810        6.6570967438       24.8365618360  SOLV      1691            0.0000000000
      5044      1654  TIP3      H2             15.2666764810        7.8833767438       25.7006918360  SOLV      1691            0.0000000000
      5045      1655  TIP3      OH2             0.6554664810        9.6804567438       28.8671618360  SOLV      1692            0.0000000000
      5046      1655  TIP3      H1              0.8397564810        9.5986267438       27.9314518360  SOLV      1692            0.0000000000
      5047      1655  TIP3      H2              1.5047564810        9.5561567438       29.2908018360  SOLV      1692            0.0000000000
      5048      1656  TIP3      OH2            16.4765164810        9.5725667438       34.4956118360  SOLV      1693            0.0000000000
      5049      1656  TIP3      H1             17.0592464810        8.8377967438       34.6873318360  SOLV      1693            0.0000000000
      5050      1656  TIP3      H2             17.0404464810       10.3445967438       34.5421918360  SOLV      1693            0.0000000000
      5051      1657  TIP3      OH2            17.9732264810        7.4751467438       35.1801518360  SOLV      1694            0.0000000000
      5052      1657  TIP3      H1             17.1098964810        7.0963567438       35.0146218360  SOLV      1694            0.0000000000
      5053      1657  TIP3      H2             18.5775964810        6.7366267438       35.1057318360  SOLV      1694            0.0000000000
      5054      1658  TIP3      OH2            15.6981364810        3.6299767438       18.3533018360  SOLV      1695            0.0000000000
      5055      1658  TIP3      H1             16.3087164810        3.2586567438       18.9901218360  SOLV      1695            0.0000000000
      5056      1658  TIP3      H2             14.8612864810        3.2086667438       18.5493018360  SOLV      1695            0.0000000000
      5057      1659  TIP3      OH2            15.3307064810        5.1848167438       23.3192918360  SOLV      1696            0.0000000000
      5058      1659  TIP3      H1             15.6104164810        4.2778567438       23.4434618360  SOLV      1696            0.0000000000
      5059      1659  TIP3      H2             16.0898764810        5.6189667438       22.9302118360  SOLV      1696            0.0000000000
      5060      1660  TIP3      OH2            15.9425364810        5.7665567438       28.7551818360  SOLV      1697            0.0000000000
      5061      1660  TIP3      H1             16.8753364810        5.9785467438       28.7207818360  SOLV      1697            0.0000000000
      5062      1660  TIP3      H2             15.7072864810        5.8677667438       29.6774818360  SOLV      1697            0.0000000000
      5063      1661  TIP3      OH2            15.9717264810        6.5030867438       31.5311218360  SOLV      1698            0.0000000000
      5064      1661  TIP3      H1             15.1288564810        6.7711267438       31.8971018360  SOLV      1698            0.0000000000
      5065      1661  TIP3      H2             16.4141564810        7.3252767438       31.3202318360  SOLV      1698            0.0000000000
      5066      1662  TIP3      OH2             0.2529464810        4.9509567438       35.0080418360  SOLV      1699            0.0000000000
      5067      1662  TIP3      H1              1.1724364810        4.8287867438       35.2443518360  SOLV      1699            0.0000000000
      5068      1662  TIP3      H2             -0.1966035190        4.2009267438       35.3973918360  SOLV      1699            0.0000000000
      5069      1663  TIP3      OH2            18.2548864810        0.4831067438       36.8846218360  SOLV      1700            0.0000000000
      5070      1663  TIP3      H1             18.6045864810       -0.1705432562       36.2790918360  SOLV      1700            0.0000000000
      5071      1663  TIP3      H2             18.4018364810        1.3205167438       36.4448818360  SOLV      1700            0.0000000000
      5072      1664  TIP3      OH2            15.9441864810        2.4477467438       23.3674918360  SOLV      1701            0.0000000000
      5073      1664  TIP3      H1             16.1266864810        1.9988967438       24.1929918360  SOLV      1701            0.0000000000
      5074      1664  TIP3      H2             15.3444764810        1.8631867438       22.9039518360  SOLV      1701            0.0000000000
      5075      1665  TIP3      OH2             1.4741964810        3.2631167438       27.8993318360  SOLV      1702            0.0000000000
      5076      1665  TIP3      H1              1.9193564810        2.4713667438       28.2013018360  SOLV      1702            0.0000000000
      5077      1665  TIP3      H2              1.9404964810        3.9796367438       28.3298918360  SOLV      1702            0.0000000000
      5078      1666  TIP3      OH2            -0.2217735190        6.2624167438       28.9683518360  SOLV      1703            0.0000000000
      5079      1666  TIP3      H1              0.2702064810        6.0414667438       28.1775518360  SOLV      1703            0.0000000000
      5080      1666  TIP3      H2              0.1403164810        7.1027567438       29.2493018360  SOLV      1703            0.0000000000
      5081      1667  TIP3      OH2            17.7746064810        2.5925667438       35.2337518360  SOLV      1704            0.0000000000
      5082      1667  TIP3      H1             16.8571764810        2.8632767438       35.1981018360  SOLV      1704            0.0000000000
      5083      1667  TIP3      H2             17.8975464810        2.0574067438       34.4497218360  SOLV      1704            0.0000000000
      5084      1668  TIP3      OH2            17.8108064810        2.5155567438       19.8955218360  SOLV      1705            0.0000000000
      5085      1668  TIP3      H1             18.2230664810        1.7941267438       19.4203218360  SOLV      1705            0.0000000000
      5086      1668  TIP3      H2             18.4924564810        3.1850167438       19.9539518360  SOLV      1705            0.0000000000
      5087      1669  TIP3      OH2            14.8625964810       17.5044967438       24.9683318360  SOLV      1706            0.0000000000
      5088      1669  TIP3      H1             15.5148864810       17.1567067438       24.3602418360  SOLV      1706            0.0000000000
      5089      1669  TIP3      H2             15.3729764810       17.9928167438       25.6143018360  SOLV      1706            0.0000000000
      5090      1670  TIP3      OH2             2.2473464810       14.4336367438       35.5114218360  SOLV      1707            0.0000000000
      5091      1670  TIP3      H1              1.4265964810       14.6082867438       35.0508918360  SOLV      1707            0.0000000000
      5092      1670  TIP3      H2              1.9951264810       14.3601067438       36.4318618360  SOLV      1707            0.0000000000
      5093      1671  TIP3      OH2             5.2016364810       15.4077567438       31.7698218360  SOLV      1708            0.0000000000
      5094      1671  TIP3      H1              4.7767464810       16.2176067438       31.4872818360  SOLV      1708            0.0000000000
      5095      1671  TIP3      H2              6.1059164810       15.4931667438       31.4678018360  SOLV      1708            0.0000000000
      5096      1672  TIP3      OH2             9.5127764810       16.8067567438       34.7291918360  SOLV      1709            0.0000000000
      5097      1672  TIP3      H1              9.6975264810       16.4733667438       35.6072218360  SOLV      1709            0.0000000000
      5098      1672  TIP3      H2             10.3592264810       17.1166167438       34.4071118360  SOLV      1709            0.0000000000
      5099      1673  TIP3      OH2            11.8578164810       18.0926467438       33.9733318360  SOLV      1710            0.0000000000
      5100      1673  TIP3      H1             12.5347064810       17.4598767438       33.7332518360  SOLV      1710            0.0000000000
      5101      1673  TIP3      H2             12.1796964810       18.4936967438       34.7806618360  SOLV      1710            0.0000000000
      5102      1674  TIP3      OH2            16.7751964810        0.6821967438       33.0528318360  SOLV      1711            0.0000000000
      5103      1674  TIP3      H1             15.9625464810        1.0072267438       32.6653018360  SOLV      1711            0.0000000000
      5104      1674  TIP3      H2             17.0080464810       -0.0779532562       32.5197418360  SOLV      1711            0.0000000000
      5105      1675  TIP3      OH2             2.6033064810       18.6641467438       31.8173518360  SOLV      1712            0.0000000000
      5106      1675  TIP3      H1              1.8829464810       19.1042467438       31.3661218360  SOLV      1712            0.0000000000
      5107      1675  TIP3      H2              2.2377064810       18.4136167438       32.6657518360  SOLV      1712            0.0000000000
      5108      1676  TIP3      OH2             5.0705664810       18.2645367438       30.8470718360  SOLV      1713            0.0000000000
      5109      1676  TIP3      H1              4.2057864810       18.3363867438       31.2510818360  SOLV      1713            0.0000000000
      5110      1676  TIP3      H2              5.0154664810       18.8112667438       30.0633218360  SOLV      1713            0.0000000000
      5111      1677  TIP3      OH2             9.7811264810       18.1524267438       30.0226718360  SOLV      1714            0.0000000000
      5112      1677  TIP3      H1              9.3245264810       18.6813967438       29.3685118360  SOLV      1714            0.0000000000
      5113      1677  TIP3      H2              9.9439264810       18.7555667438       30.7479018360  SOLV      1714            0.0000000000
      5114      1678  TIP3      OH2            12.1087564810       17.0303867438       30.9677018360  SOLV      1715            0.0000000000
      5115      1678  TIP3      H1             11.2041264810       17.1954067438       30.7019118360  SOLV      1715            0.0000000000
      5116      1678  TIP3      H2             12.5376164810       17.8836067438       30.9020418360  SOLV      1715            0.0000000000
      5117      1679  TIP3      OH2            14.7129464810       18.6002967438       31.2624818360  SOLV      1716            0.0000000000
      5118      1679  TIP3      H1             14.5311464810       19.5161867438       31.0519718360  SOLV      1716            0.0000000000
      5119      1679  TIP3      H2             14.8897264810       18.1900067438       30.4159418360  SOLV      1716            0.0000000000
      5120      1680  TIP3      OH2             2.0181164810       17.2873967438       28.7275318360  SOLV      1717            0.0000000000
      5121      1680  TIP3      H1              1.9997164810       16.8619067438       29.5847618360  SOLV      1717            0.0000000000
      5122      1680  TIP3      H2              2.8229064810       16.9688967438       28.3187518360  SOLV      1717            0.0000000000
      5123      1681  TIP3      OH2             4.1594264810       15.9972667438       27.3825218360  SOLV      1718            0.0000000000
      5124      1681  TIP3      H1              3.9404964810       15.0810067438       27.5521218360  SOLV      1718            0.0000000000
      5125      1681  TIP3      H2              4.9836464810       16.1373067438       27.8486618360  SOLV      1718            0.0000000000
      5126      1682  TIP3      OH2             6.6966764810       16.4671967438       28.2313218360  SOLV      1719            0.0000000000
      5127      1682  TIP3      H1              6.9092464810       15.5790967438       27.9444118360  SOLV      1719            0.0000000000
      5128      1682  TIP3      H2              6.7611864810       16.4329667438       29.1857218360  SOLV      1719            0.0000000000
      5129      1683  TIP3      OH2            10.2050464810        2.1312567438       27.3756518360  SOLV      1720            0.0000000000
      5130      1683  TIP3      H1              9.5307264810        1.5018167438       27.6312318360  SOLV      1720            0.0000000000
      5131      1683  TIP3      H2             10.7689664810        1.6471467438       26.7724418360  SOLV      1720            0.0000000000
      5132      1684  TIP3      OH2            15.3477664810        0.2386567438       27.4883618360  SOLV      1721            0.0000000000
      5133      1684  TIP3      H1             15.9515264810        0.7861967438       26.9864618360  SOLV      1721            0.0000000000
      5134      1684  TIP3      H2             14.4779664810        0.5576967438       27.2477718360  SOLV      1721            0.0000000000
      5135      1685  TIP3      OH2            17.0748064810        1.3775267438       25.8214518360  SOLV      1722            0.0000000000
      5136      1685  TIP3      H1             17.6865564810        0.8630967438       25.2948118360  SOLV      1722            0.0000000000
      5137      1685  TIP3      H2             17.4571464810        2.2547367438       25.8448918360  SOLV      1722            0.0000000000
      5138      1686  TIP3      OH2             2.5317964810        0.7652867438       25.1976418360  SOLV      1723            0.0000000000
      5139      1686  TIP3      H1              1.7547764810        0.5307767438       24.6902318360  SOLV      1723            0.0000000000
      5140      1686  TIP3      H2              3.0621564810       -0.0315032562       25.2064418360  SOLV      1723            0.0000000000
      5141      1687  TIP3      OH2             1.3681364810        0.5630967438       21.0012518360  SOLV      1724            0.0000000000
      5142      1687  TIP3      H1              1.8072064810        1.1741467438       20.4096018360  SOLV      1724            0.0000000000
      5143      1687  TIP3      H2              0.7343764810        1.1015067438       21.4752518360  SOLV      1724            0.0000000000
      5144      1688  TIP3      OH2             7.1110564810        0.6919967438       25.0109518360  SOLV      1725            0.0000000000
      5145      1688  TIP3      H1              7.9853964810        1.0804267438       24.9813818360  SOLV      1725            0.0000000000
      5146      1688  TIP3      H2              6.9751364810        0.4767767438       25.9336718360  SOLV      1725            0.0000000000
      5147      1689  TIP3      OH2            12.6678964810        0.7219767438       26.6601218360  SOLV      1726            0.0000000000
      5148      1689  TIP3      H1             12.7440564810        0.8171367438       25.7107218360  SOLV      1726            0.0000000000
      5149      1689  TIP3      H2             12.3928164810       -0.1857332562       26.7890318360  SOLV      1726            0.0000000000
      5150      1690  TIP3      OH2            14.0211564810        0.7477567438       22.3526218360  SOLV      1727            0.0000000000
      5151      1690  TIP3      H1             13.3182664810        1.3626767438       22.1427618360  SOLV      1727            0.0000000000
      5152      1690  TIP3      H2             13.5762964810       -0.0895732562       22.4837118360  SOLV      1727            0.0000000000
      5153      1691  TIP3      OH2             1.2690864810       16.5113167438       21.8987618360  SOLV      1728            0.0000000000
      5154      1691  TIP3      H1              0.5840764810       16.4732067438       21.2312718360  SOLV      1728            0.0000000000
      5155      1691  TIP3      H2              1.2728064810       17.4240767438       22.1869718360  SOLV      1728            0.0000000000
      5156      1692  TIP3      OH2             3.2290464810        2.4792467438       19.4436618360  SOLV      1729            0.0000000000
      5157      1692  TIP3      H1              3.7203864810        1.8494867438       18.9162118360  SOLV      1729            0.0000000000
      5158      1692  TIP3      H2              3.8526764810        2.7751867438       20.1067818360  SOLV      1729            0.0000000000
      5159      1693  TIP3      OH2             8.2550564810        2.7723967438       21.9007118360  SOLV      1730            0.0000000000
      5160      1693  TIP3      H1              8.4331864810        2.1257167438       22.5835718360  SOLV      1730            0.0000000000
      5161      1693  TIP3      H2              8.2016764810        3.6061667438       22.3678218360  SOLV      1730            0.0000000000
      5162      1694  TIP3      OH2            10.1334364810       17.7208067438       20.2963818360  SOLV      1731            0.0000000000
      5163      1694  TIP3      H1             10.9994564810       18.0875467438       20.1182018360  SOLV      1731            0.0000000000
      5164      1694  TIP3      H2              9.8867164810       17.2816067438       19.4824618360  SOLV      1731            0.0000000000
      5165      1695  TIP3      OH2            16.8423964810       17.2838367438       22.9754918360  SOLV      1732            0.0000000000
      5166      1695  TIP3      H1             16.6481064810       16.5360467438       22.4104518360  SOLV      1732            0.0000000000
      5167      1695  TIP3      H2             16.8034064810       18.0418467438       22.3922818360  SOLV      1732            0.0000000000
      5168      1696  TIP3      OH2             2.4895964810        1.2794767438       34.7152618360  SOLV      1733            0.0000000000
      5169      1696  TIP3      H1              2.1234164810        0.5137367438       35.1577318360  SOLV      1733            0.0000000000
      5170      1696  TIP3      H2              3.4024464810        1.3084967438       35.0017718360  SOLV      1733            0.0000000000
      5171      1697  TIP3      OH2             4.4626764810        0.6299167438       36.2509718360  SOLV      1734            0.0000000000
      5172      1697  TIP3      H1              5.3610364810        0.3559367438       36.0663118360  SOLV      1734            0.0000000000
      5173      1697  TIP3      H2              4.0759864810       -0.1124832562       36.7152318360  SOLV      1734            0.0000000000
      5174      1698  TIP3      OH2             3.0872064810       17.4313967438       18.9239718360  SOLV      1735            0.0000000000
      5175      1698  TIP3      H1              2.8196664810       17.7176867438       19.7972818360  SOLV      1735            0.0000000000
      5176      1698  TIP3      H2              3.8584664810       16.8853167438       19.0762218360  SOLV      1735            0.0000000000
      5177      1699  TIP3      OH2            16.0600164810       16.0350767438       35.1256718360  SOLV      1736            0.0000000000
      5178      1699  TIP3      H1             15.2782064810       15.8488767438       34.6057318360  SOLV      1736            0.0000000000
      5179      1699  TIP3      H2             15.9880064810       16.9645067438       35.3429218360  SOLV      1736            0.0000000000
      5180      1700  TIP3      OH2            30.1100564810        9.9215167438       25.1563918360  SOLV      1737            0.0000000000
      5181      1700  TIP3      H1             30.1991664810       10.8653367438       25.0241018360  SOLV      1737            0.0000000000
      5182      1700  TIP3      H2             29.4718164810        9.6461567438       24.4983318360  SOLV      1737            0.0000000000
      5183      1701  TIP3      OH2            29.0431864810        9.1765867438       28.5752118360  SOLV      1738            0.0000000000
      5184      1701  TIP3      H1             29.0049364810        8.5302167438       29.2801718360  SOLV      1738            0.0000000000
      5185      1701  TIP3      H2             28.7208364810        8.7100267438       27.8040818360  SOLV      1738            0.0000000000
      5186      1702  TIP3      OH2            21.4116864810        8.7907967438       30.1682018360  SOLV      1739            0.0000000000
      5187      1702  TIP3      H1             21.4528964810        8.1651267438       30.8914418360  SOLV      1739            0.0000000000
      5188      1702  TIP3      H2             22.1144564810        9.4146567438       30.3502418360  SOLV      1739            0.0000000000
      5189      1703  TIP3      OH2            32.7492064810       12.1156267438       26.8767218360  SOLV      1740            0.0000000000
      5190      1703  TIP3      H1             32.3084764810       11.3952267438       27.3272818360  SOLV      1740            0.0000000000
      5191      1703  TIP3      H2             32.7361764810       12.8363467438       27.5064918360  SOLV      1740            0.0000000000
      5192      1704  TIP3      OH2            22.3349964810       13.2406867438       28.7031118360  SOLV      1741            0.0000000000
      5193      1704  TIP3      H1             21.9655164810       12.4387367438       28.3335418360  SOLV      1741            0.0000000000
      5194      1704  TIP3      H2             23.2761064810       13.0721767438       28.7494518360  SOLV      1741            0.0000000000
      5195      1705  TIP3      OH2            18.9450464810        6.9009467438       24.0959918360  SOLV      1742            0.0000000000
      5196      1705  TIP3      H1             18.4973864810        7.7468167438       24.0776418360  SOLV      1742            0.0000000000
      5197      1705  TIP3      H2             18.3841664810        6.3213667438       23.5805018360  SOLV      1742            0.0000000000
      5198      1706  TIP3      OH2            19.6556564810        9.0629067438       26.2217918360  SOLV      1743            0.0000000000
      5199      1706  TIP3      H1             19.8690064810        8.2930667438       26.7490918360  SOLV      1743            0.0000000000
      5200      1706  TIP3      H2             20.3934164810        9.1525767438       25.6185518360  SOLV      1743            0.0000000000
      5201      1707  TIP3      OH2            29.8607564810       17.2197967438       27.0887618360  SOLV      1744            0.0000000000
      5202      1707  TIP3      H1             30.4803964810       16.5432667438       26.8156818360  SOLV      1744            0.0000000000
      5203      1707  TIP3      H2             29.6524964810       17.0018767438       27.9972518360  SOLV      1744            0.0000000000
      5204      1708  TIP3      OH2            27.4326264810       11.6087267438       28.9813118360  SOLV      1745            0.0000000000
      5205      1708  TIP3      H1             27.7364164810       10.9228667438       28.3867218360  SOLV      1745            0.0000000000
      5206      1708  TIP3      H2             28.1540264810       11.7275967438       29.5991118360  SOLV      1745            0.0000000000
      5207      1709  TIP3      OH2            36.0956064810        3.2102567438       29.8419318360  SOLV      1746            0.0000000000
      5208      1709  TIP3      H1             36.1448264810        3.8203767438       30.5778418360  SOLV      1746            0.0000000000
      5209      1709  TIP3      H2             36.5211164810        3.6713467438       29.1190418360  SOLV      1746            0.0000000000
      5210      1710  TIP3      OH2            30.5733264810        6.0029667438       29.3087918360  SOLV      1747            0.0000000000
      5211      1710  TIP3      H1             30.7159164810        5.0566667438       29.3289518360  SOLV      1747            0.0000000000
      5212      1710  TIP3      H2             30.4672264810        6.2099467438       28.3802818360  SOLV      1747            0.0000000000
      5213      1711  TIP3      OH2            23.7281564810        4.1046067438       26.5812718360  SOLV      1748            0.0000000000
      5214      1711  TIP3      H1             23.7712664810        4.9644567438       26.1629018360  SOLV      1748            0.0000000000
      5215      1711  TIP3      H2             23.2705664810        3.5520767438       25.9475918360  SOLV      1748            0.0000000000
      5216      1712  TIP3      OH2            31.4504264810        4.2351667438       24.9821018360  SOLV      1749            0.0000000000
      5217      1712  TIP3      H1             32.0968564810        3.9064867438       25.6068618360  SOLV      1749            0.0000000000
      5218      1712  TIP3      H2             31.9603664810        4.7530667438       24.3592418360  SOLV      1749            0.0000000000
      5219      1713  TIP3      OH2            20.3483064810        6.5011867438       27.3434118360  SOLV      1750            0.0000000000
      5220      1713  TIP3      H1             21.0019664810        5.9513567438       27.7754218360  SOLV      1750            0.0000000000
      5221      1713  TIP3      H2             20.3722364810        6.2270867438       26.4266118360  SOLV      1750            0.0000000000
      5222      1714  TIP3      OH2            25.5047564810        8.0513167438       26.5585618360  SOLV      1751            0.0000000000
      5223      1714  TIP3      H1             26.1208564810        7.5248567438       27.0679618360  SOLV      1751            0.0000000000
      5224      1714  TIP3      H2             24.9186364810        7.4111867438       26.1549218360  SOLV      1751            0.0000000000
      5225      1715  TIP3      OH2            36.4870664810        4.6881767438       32.0779118360  SOLV      1752            0.0000000000
      5226      1715  TIP3      H1             35.7985264810        5.3462467438       31.9825718360  SOLV      1752            0.0000000000
      5227      1715  TIP3      H2             36.5025264810        4.4909667438       33.0144518360  SOLV      1752            0.0000000000
      5228      1716  TIP3      OH2            22.5383464810        3.0224467438       30.6553518360  SOLV      1753            0.0000000000
      5229      1716  TIP3      H1             22.3195164810        3.5525067438       29.8889518360  SOLV      1753            0.0000000000
      5230      1716  TIP3      H2             21.8704364810        3.2489967438       31.3024918360  SOLV      1753            0.0000000000
      5231      1717  TIP3      OH2            29.9073264810       12.5225567438       24.1992618360  SOLV      1754            0.0000000000
      5232      1717  TIP3      H1             29.6118364810       12.1997867438       23.3479518360  SOLV      1754            0.0000000000
      5233      1717  TIP3      H2             29.5831064810       13.4222267438       24.2405218360  SOLV      1754            0.0000000000
      5234      1718  TIP3      OH2            25.1074864810       10.6980167438       30.9427218360  SOLV      1755            0.0000000000
      5235      1718  TIP3      H1             24.3673964810       11.2961667438       31.0462418360  SOLV      1755            0.0000000000
      5236      1718  TIP3      H2             25.8214364810       11.2519767438       30.6270818360  SOLV      1755            0.0000000000
      5237      1719  TIP3      OH2            33.2142664810        3.5260967438       26.9626918360  SOLV      1756            0.0000000000
      5238      1719  TIP3      H1             32.9990664810        2.7604367438       27.4952918360  SOLV      1756            0.0000000000
      5239      1719  TIP3      H2             33.8700064810        3.9985567438       27.4755418360  SOLV      1756            0.0000000000
      5240      1720  TIP3      OH2            22.1320764810        4.9146267438       28.6075718360  SOLV      1757            0.0000000000
      5241      1720  TIP3      H1             22.7457064810        5.5473867438       28.9808118360  SOLV      1757            0.0000000000
      5242      1720  TIP3      H2             22.6441464810        4.4421267438       27.9512618360  SOLV      1757            0.0000000000
      5243      1721  TIP3      OH2            23.5149164810       12.6623167438       31.7298718360  SOLV      1758            0.0000000000
      5244      1721  TIP3      H1             23.5096764810       13.5416667438       31.3518018360  SOLV      1758            0.0000000000
      5245      1721  TIP3      H2             22.6613264810       12.5787267438       32.1548618360  SOLV      1758            0.0000000000
      5246      1722  TIP3      OH2            19.6360064810       12.3331067438       22.5118018360  SOLV      1759            0.0000000000
      5247      1722  TIP3      H1             19.3640964810       12.5622067438       21.6230918360  SOLV      1759            0.0000000000
      5248      1722  TIP3      H2             19.6815764810       13.1709867438       22.9723318360  SOLV      1759            0.0000000000
      5249      1723  TIP3      OH2            33.2609764810       13.9546967438       29.2246518360  SOLV      1760            0.0000000000
      5250      1723  TIP3      H1             32.3193464810       14.0130867438       29.3863418360  SOLV      1760            0.0000000000
      5251      1723  TIP3      H2             33.5375864810       14.8607467438       29.0876218360  SOLV      1760            0.0000000000
      5252      1724  TIP3      OH2            33.5616764810        2.2412267438       30.6420418360  SOLV      1761            0.0000000000
      5253      1724  TIP3      H1             32.8255964810        2.8519367438       30.6041718360  SOLV      1761            0.0000000000
      5254      1724  TIP3      H2             34.2450764810        2.6561267438       30.1156818360  SOLV      1761            0.0000000000
      5255      1725  TIP3      OH2            26.5648164810        0.3279567438       28.1078418360  SOLV      1762            0.0000000000
      5256      1725  TIP3      H1             26.4472364810       -0.6204432562       28.0536718360  SOLV      1762            0.0000000000
      5257      1725  TIP3      H2             25.7098264810        0.6605667438       28.3809518360  SOLV      1762            0.0000000000
      5258      1726  TIP3      OH2            31.5130964810       15.7360467438       25.8498118360  SOLV      1763            0.0000000000
      5259      1726  TIP3      H1             31.9383264810       15.0288367438       25.3647718360  SOLV      1763            0.0000000000
      5260      1726  TIP3      H2             31.8300964810       16.5373167438       25.4330318360  SOLV      1763            0.0000000000
      5261      1727  TIP3      OH2            32.6727464810       13.6368967438       24.3584718360  SOLV      1764            0.0000000000
      5262      1727  TIP3      H1             32.4152264810       12.9469067438       23.7470618360  SOLV      1764            0.0000000000
      5263      1727  TIP3      H2             32.7438264810       13.1940167438       25.2040618360  SOLV      1764            0.0000000000
      5264      1728  TIP3      OH2            34.3587664810       12.2035667438       32.8358218360  SOLV      1765            0.0000000000
      5265      1728  TIP3      H1             34.4983964810       11.6118167438       32.0965218360  SOLV      1765            0.0000000000
      5266      1728  TIP3      H2             34.5260464810       13.0761567438       32.4797018360  SOLV      1765            0.0000000000
      5267      1729  TIP3      OH2            28.8313064810        9.1655167438       22.6084218360  SOLV      1766            0.0000000000
      5268      1729  TIP3      H1             28.1198564810        9.7004867438       22.2564718360  SOLV      1766            0.0000000000
      5269      1729  TIP3      H2             29.5222664810        9.2207267438       21.9483118360  SOLV      1766            0.0000000000
      5270      1730  TIP3      OH2            28.8852264810        7.6229467438       19.6469218360  SOLV      1767            0.0000000000
      5271      1730  TIP3      H1             29.5862164810        7.6456367438       20.2983218360  SOLV      1767            0.0000000000
      5272      1730  TIP3      H2             29.1875164810        6.9949167438       18.9908518360  SOLV      1767            0.0000000000
      5273      1731  TIP3      OH2            36.2006964810        8.5433667438       30.9018618360  SOLV      1768            0.0000000000
      5274      1731  TIP3      H1             35.5481064810        9.2379267438       30.9909518360  SOLV      1768            0.0000000000
      5275      1731  TIP3      H2             36.6657264810        8.7534567438       30.0920218360  SOLV      1768            0.0000000000
      5276      1732  TIP3      OH2            32.2370764810        9.3748467438       23.5600118360  SOLV      1769            0.0000000000
      5277      1732  TIP3      H1             31.5051764810        9.6032167438       24.1330718360  SOLV      1769            0.0000000000
      5278      1732  TIP3      H2             32.6842964810        8.6611167438       24.0147618360  SOLV      1769            0.0000000000
      5279      1733  TIP3      OH2            32.1344264810        7.5491067438       32.6277118360  SOLV      1770            0.0000000000
      5280      1733  TIP3      H1             32.2143364810        8.3125467438       33.1995618360  SOLV      1770            0.0000000000
      5281      1733  TIP3      H2             31.5331964810        7.8283467438       31.9372218360  SOLV      1770            0.0000000000
      5282      1734  TIP3      OH2            23.8824464810       10.0054667438       25.4425118360  SOLV      1771            0.0000000000
      5283      1734  TIP3      H1             23.5519664810        9.6348067438       24.6242118360  SOLV      1771            0.0000000000
      5284      1734  TIP3      H2             24.4708564810        9.3348667438       25.7893418360  SOLV      1771            0.0000000000
      5285      1735  TIP3      OH2            25.2491964810       13.4335267438       28.1237318360  SOLV      1772            0.0000000000
      5286      1735  TIP3      H1             25.1543264810       12.8548367438       27.3671918360  SOLV      1772            0.0000000000
      5287      1735  TIP3      H2             25.9785564810       13.0620967438       28.6200118360  SOLV      1772            0.0000000000
      5288      1736  TIP3      OH2            24.2489964810        8.7740267438       29.0760118360  SOLV      1773            0.0000000000
      5289      1736  TIP3      H1             24.8142464810        8.8954467438       28.3131318360  SOLV      1773            0.0000000000
      5290      1736  TIP3      H2             24.5678864810        9.4115267438       29.7148618360  SOLV      1773            0.0000000000
      5291      1737  TIP3      OH2            30.5582164810       14.2772167438       29.8100618360  SOLV      1774            0.0000000000
      5292      1737  TIP3      H1             30.3178764810       14.9395267438       30.4579818360  SOLV      1774            0.0000000000
      5293      1737  TIP3      H2             30.3600364810       13.4427367438       30.2350218360  SOLV      1774            0.0000000000
      5294      1738  TIP3      OH2            25.1290664810       13.1732967438       33.7932018360  SOLV      1775            0.0000000000
      5295      1738  TIP3      H1             24.8178164810       13.9556167438       34.2485218360  SOLV      1775            0.0000000000
      5296      1738  TIP3      H2             24.4790864810       13.0202067438       33.1074018360  SOLV      1775            0.0000000000
      5297      1739  TIP3      OH2            31.1080264810        8.5371367438       21.2451318360  SOLV      1776            0.0000000000
      5298      1739  TIP3      H1             31.6875764810        8.6871667438       21.9920218360  SOLV      1776            0.0000000000
      5299      1739  TIP3      H2             31.5220264810        9.0078767438       20.5217718360  SOLV      1776            0.0000000000
      5300      1740  TIP3      OH2            22.0490564810        9.3714067438       33.0217718360  SOLV      1777            0.0000000000
      5301      1740  TIP3      H1             22.1193764810       10.0220867438       33.7202718360  SOLV      1777            0.0000000000
      5302      1740  TIP3      H2             21.1582764810        9.4741567438       32.6868618360  SOLV      1777            0.0000000000
      5303      1741  TIP3      OH2            28.8345164810       15.2739867438       24.6804418360  SOLV      1778            0.0000000000
      5304      1741  TIP3      H1             29.3082764810       15.5696167438       25.4578618360  SOLV      1778            0.0000000000
      5305      1741  TIP3      H2             28.2714464810       16.0121467438       24.4474018360  SOLV      1778            0.0000000000
      5306      1742  TIP3      OH2            23.3686564810       15.2447967438       34.5565818360  SOLV      1779            0.0000000000
      5307      1742  TIP3      H1             23.3761864810       15.1087667438       33.6091318360  SOLV      1779            0.0000000000
      5308      1742  TIP3      H2             22.4526964810       15.1276067438       34.8085818360  SOLV      1779            0.0000000000
      5309      1743  TIP3      OH2            34.8068664810        0.2871767438       21.0581018360  SOLV      1780            0.0000000000
      5310      1743  TIP3      H1             33.9069364810        0.4260767438       21.3531618360  SOLV      1780            0.0000000000
      5311      1743  TIP3      H2             35.0587064810        1.1186367438       20.6562718360  SOLV      1780            0.0000000000
      5312      1744  TIP3      OH2            22.8727164810        9.0748967438       23.0317918360  SOLV      1781            0.0000000000
      5313      1744  TIP3      H1             22.5808464810        9.8430667438       22.5409218360  SOLV      1781            0.0000000000
      5314      1744  TIP3      H2             22.1982364810        8.4155167438       22.8689318360  SOLV      1781            0.0000000000
      5315      1745  TIP3      OH2            35.9960064810       14.6534167438       19.4344918360  SOLV      1782            0.0000000000
      5316      1745  TIP3      H1             36.0693564810       15.5924367438       19.6050218360  SOLV      1782            0.0000000000
      5317      1745  TIP3      H2             36.9015164810       14.3482767438       19.3782218360  SOLV      1782            0.0000000000
      5318      1746  TIP3      OH2            18.9657264810       11.4378167438       31.8467718360  SOLV      1783            0.0000000000
      5319      1746  TIP3      H1             18.4645664810       11.4097567438       31.0317418360  SOLV      1783            0.0000000000
      5320      1746  TIP3      H2             18.9710964810       10.5321367438       32.1565018360  SOLV      1783            0.0000000000
      5321      1747  TIP3      OH2            18.7159964810       14.2181967438       28.7307918360  SOLV      1784            0.0000000000
      5322      1747  TIP3      H1             19.6620564810       14.0738967438       28.7117418360  SOLV      1784            0.0000000000
      5323      1747  TIP3      H2             18.6036264810       15.0024767438       29.2679118360  SOLV      1784            0.0000000000
      5324      1748  TIP3      OH2            36.9138464810       14.8841667438       34.4131618360  SOLV      1785            0.0000000000
      5325      1748  TIP3      H1             36.8645264810       13.9289767438       34.3759218360  SOLV      1785            0.0000000000
      5326      1748  TIP3      H2             36.0870764810       15.1516967438       34.8145418360  SOLV      1785            0.0000000000
      5327      1749  TIP3      OH2            27.8922464810       14.4580867438       33.2893018360  SOLV      1786            0.0000000000
      5328      1749  TIP3      H1             27.9797064810       15.2845467438       33.7642118360  SOLV      1786            0.0000000000
      5329      1749  TIP3      H2             27.0287564810       14.1284667438       33.5382318360  SOLV      1786            0.0000000000
      5330      1750  TIP3      OH2            28.3068264810       18.2304567438       23.0953618360  SOLV      1787            0.0000000000
      5331      1750  TIP3      H1             28.2314264810       18.1091767438       22.1488818360  SOLV      1787            0.0000000000
      5332      1750  TIP3      H2             28.3396964810       19.1797267438       23.2138218360  SOLV      1787            0.0000000000
      5333      1751  TIP3      OH2            21.9602064810       17.0191567438       24.8762618360  SOLV      1788            0.0000000000
      5334      1751  TIP3      H1             22.1122464810       16.6711967438       25.7549118360  SOLV      1788            0.0000000000
      5335      1751  TIP3      H2             21.1092464810       16.6628867438       24.6209818360  SOLV      1788            0.0000000000
      5336      1752  TIP3      OH2            31.4084264810       17.3844767438       20.0976018360  SOLV      1789            0.0000000000
      5337      1752  TIP3      H1             31.7832664810       16.6400867438       19.6268618360  SOLV      1789            0.0000000000
      5338      1752  TIP3      H2             31.4127964810       17.1145367438       21.0159318360  SOLV      1789            0.0000000000
      5339      1753  TIP3      OH2            31.0772364810       17.3101867438       22.8468218360  SOLV      1790            0.0000000000
      5340      1753  TIP3      H1             30.1422164810       17.4103767438       23.0255218360  SOLV      1790            0.0000000000
      5341      1753  TIP3      H2             31.3574264810       16.6007867438       23.4251418360  SOLV      1790            0.0000000000
      5342      1754  TIP3      OH2            34.0658264810        6.3774167438       34.8933818360  SOLV      1791            0.0000000000
      5343      1754  TIP3      H1             33.6585064810        6.8579767438       34.1727118360  SOLV      1791            0.0000000000
      5344      1754  TIP3      H2             34.1063964810        5.4720167438       34.5854618360  SOLV      1791            0.0000000000
      5345      1755  TIP3      OH2            21.2147764810       12.7613567438       32.8900518360  SOLV      1792            0.0000000000
      5346      1755  TIP3      H1             21.4309064810       12.3999167438       33.7496318360  SOLV      1792            0.0000000000
      5347      1755  TIP3      H2             20.3592464810       12.3867367438       32.6804018360  SOLV      1792            0.0000000000
      5348      1756  TIP3      OH2            23.8335764810        1.2314067438       28.8854718360  SOLV      1793            0.0000000000
      5349      1756  TIP3      H1             22.9719464810        1.1442267438       28.4777618360  SOLV      1793            0.0000000000
      5350      1756  TIP3      H2             23.8111464810        2.0874167438       29.3132318360  SOLV      1793            0.0000000000
      5351      1757  TIP3      OH2            28.4963564810        0.9534467438       32.2601718360  SOLV      1794            0.0000000000
      5352      1757  TIP3      H1             28.9166664810        0.5381567438       33.0132318360  SOLV      1794            0.0000000000
      5353      1757  TIP3      H2             27.5633164810        0.7747767438       32.3773718360  SOLV      1794            0.0000000000
      5354      1758  TIP3      OH2            31.8228464810        4.7089667438       33.1136218360  SOLV      1795            0.0000000000
      5355      1758  TIP3      H1             31.3087964810        4.5831867438       33.9112218360  SOLV      1795            0.0000000000
      5356      1758  TIP3      H2             31.6673164810        5.6212767438       32.8692418360  SOLV      1795            0.0000000000
      5357      1759  TIP3      OH2            32.5853364810        9.5699667438       18.8749218360  SOLV      1796            0.0000000000
      5358      1759  TIP3      H1             32.6274164810        9.3473567438       17.9449218360  SOLV      1796            0.0000000000
      5359      1759  TIP3      H2             33.4345464810        9.9686767438       19.0649118360  SOLV      1796            0.0000000000
      5360      1760  TIP3      OH2            28.1580864810        3.4457867438       19.5452518360  SOLV      1797            0.0000000000
      5361      1760  TIP3      H1             27.9045664810        3.4649467438       20.4680618360  SOLV      1797            0.0000000000
      5362      1760  TIP3      H2             27.9012964810        2.5743267438       19.2438718360  SOLV      1797            0.0000000000
      5363      1761  TIP3      OH2            23.9245864810        6.1968567438       29.9804918360  SOLV      1798            0.0000000000
      5364      1761  TIP3      H1             23.2827964810        6.1565867438       30.6895018360  SOLV      1798            0.0000000000
      5365      1761  TIP3      H2             23.9617864810        7.1233267438       29.7427918360  SOLV      1798            0.0000000000
      5366      1762  TIP3      OH2            23.9214964810        6.4178667438       24.8924918360  SOLV      1799            0.0000000000
      5367      1762  TIP3      H1             23.0287864810        6.0774767438       24.8338718360  SOLV      1799            0.0000000000
      5368      1762  TIP3      H2             24.3721564810        6.0409567438       24.1368118360  SOLV      1799            0.0000000000
      5369      1763  TIP3      OH2            29.4570464810        6.8338967438       23.7095718360  SOLV      1800            0.0000000000
      5370      1763  TIP3      H1             29.0480764810        7.6487567438       23.4180518360  SOLV      1800            0.0000000000
      5371      1763  TIP3      H2             30.1776664810        6.6939067438       23.0952818360  SOLV      1800            0.0000000000
      5372      1764  TIP3      OH2            28.5592064810        7.0095367438       35.1976418360  SOLV      1801            0.0000000000
      5373      1764  TIP3      H1             27.9965864810        6.3046967438       35.5184218360  SOLV      1801            0.0000000000
      5374      1764  TIP3      H2             29.3855464810        6.8887267438       35.6654018360  SOLV      1801            0.0000000000
      5375      1765  TIP3      OH2            30.4618164810        6.2799367438       26.5235418360  SOLV      1802            0.0000000000
      5376      1765  TIP3      H1             30.2662664810        6.8856167438       25.8086018360  SOLV      1802            0.0000000000
      5377      1765  TIP3      H2             30.6430764810        5.4464567438       26.0891718360  SOLV      1802            0.0000000000
      5378      1766  TIP3      OH2            21.6746364810        6.5172067438       31.8476918360  SOLV      1803            0.0000000000
      5379      1766  TIP3      H1             21.6365764810        6.9173667438       32.7164018360  SOLV      1803            0.0000000000
      5380      1766  TIP3      H2             21.1837464810        5.7004467438       31.9379818360  SOLV      1803            0.0000000000
      5381      1767  TIP3      OH2            25.0403764810        3.8914367438       18.6462918360  SOLV      1804            0.0000000000
      5382      1767  TIP3      H1             24.6094464810        3.4464467438       19.3760318360  SOLV      1804            0.0000000000
      5383      1767  TIP3      H2             24.3222464810        4.2630667438       18.1340418360  SOLV      1804            0.0000000000
      5384      1768  TIP3      OH2            18.2827164810        3.6333867438       25.6981618360  SOLV      1805            0.0000000000
      5385      1768  TIP3      H1             18.9134864810        3.6045967438       26.4175518360  SOLV      1805            0.0000000000
      5386      1768  TIP3      H2             18.7321464810        3.2082567438       24.9677518360  SOLV      1805            0.0000000000
      5387      1769  TIP3      OH2            19.5569264810        4.3795867438       21.1222018360  SOLV      1806            0.0000000000
      5388      1769  TIP3      H1             20.0310964810        4.9705767438       20.5372918360  SOLV      1806            0.0000000000
      5389      1769  TIP3      H2             18.8395664810        4.9098767438       21.4692118360  SOLV      1806            0.0000000000
      5390      1770  TIP3      OH2            29.7257364810        7.9180667438       31.1947818360  SOLV      1807            0.0000000000
      5391      1770  TIP3      H1             30.0492164810        7.2870367438       30.5518318360  SOLV      1807            0.0000000000
      5392      1770  TIP3      H2             29.2856664810        7.3832867438       31.8555218360  SOLV      1807            0.0000000000
      5393      1771  TIP3      OH2            26.5030264810        3.8456167438       25.9789018360  SOLV      1808            0.0000000000
      5394      1771  TIP3      H1             25.5921364810        3.9022967438       26.2675018360  SOLV      1808            0.0000000000
      5395      1771  TIP3      H2             27.0083164810        3.7851667438       26.7896218360  SOLV      1808            0.0000000000
      5396      1772  TIP3      OH2            21.3313664810        5.4742467438       24.8056618360  SOLV      1809            0.0000000000
      5397      1772  TIP3      H1             20.4421664810        5.5737967438       24.4656218360  SOLV      1809            0.0000000000
      5398      1772  TIP3      H2             21.6278564810        4.6325467438       24.4594518360  SOLV      1809            0.0000000000
      5399      1773  TIP3      OH2            24.9845464810        5.4745067438       22.4621218360  SOLV      1810            0.0000000000
      5400      1773  TIP3      H1             25.9160964810        5.6035067438       22.6404318360  SOLV      1810            0.0000000000
      5401      1773  TIP3      H2             24.7695764810        6.1439367438       21.8125918360  SOLV      1810            0.0000000000
      5402      1774  TIP3      OH2            30.9082164810        3.0802467438       29.2430818360  SOLV      1811            0.0000000000
      5403      1774  TIP3      H1             30.2313764810        3.2115567438       29.9070518360  SOLV      1811            0.0000000000
      5404      1774  TIP3      H2             30.4227064810        2.9251967438       28.4328518360  SOLV      1811            0.0000000000
      5405      1775  TIP3      OH2            23.6585664810        6.6687267438       20.0287318360  SOLV      1812            0.0000000000
      5406      1775  TIP3      H1             23.1160764810        6.2891067438       19.3374918360  SOLV      1812            0.0000000000
      5407      1775  TIP3      H2             24.4920564810        6.8631967438       19.6001418360  SOLV      1812            0.0000000000
      5408      1776  TIP3      OH2            34.1957264810       18.7517867438       35.5198418360  SOLV      1813            0.0000000000
      5409      1776  TIP3      H1             34.3955964810       19.1759767438       34.6853718360  SOLV      1813            0.0000000000
      5410      1776  TIP3      H2             34.8510964810       19.0956067438       36.1268818360  SOLV      1813            0.0000000000
      5411      1777  TIP3      OH2            21.7937064810       11.2259167438       35.1278918360  SOLV      1814            0.0000000000
      5412      1777  TIP3      H1             22.5259464810       11.4805067438       35.6893418360  SOLV      1814            0.0000000000
      5413      1777  TIP3      H2             21.0135764810       11.4304567438       35.6434318360  SOLV      1814            0.0000000000
      5414      1778  TIP3      OH2            27.8229964810        6.6329167438       27.8658618360  SOLV      1815            0.0000000000
      5415      1778  TIP3      H1             28.3873364810        6.0865767438       27.3188218360  SOLV      1815            0.0000000000
      5416      1778  TIP3      H2             27.6753364810        6.1111067438       28.6546218360  SOLV      1815            0.0000000000
      5417      1779  TIP3      OH2            22.8249664810        2.7695267438       24.2843418360  SOLV      1816            0.0000000000
      5418      1779  TIP3      H1             22.5079164810        1.8670567438       24.2488818360  SOLV      1816            0.0000000000
      5419      1779  TIP3      H2             23.6063764810        2.7712667438       23.7315018360  SOLV      1816            0.0000000000
      5420      1780  TIP3      OH2            26.4495864810        5.0215267438       30.2799018360  SOLV      1817            0.0000000000
      5421      1780  TIP3      H1             25.6141164810        5.4754767438       30.3901418360  SOLV      1817            0.0000000000
      5422      1780  TIP3      H2             26.9736464810        5.2973767438       31.0318918360  SOLV      1817            0.0000000000
      5423      1781  TIP3      OH2            26.9938464810       11.2342967438       21.9645418360  SOLV      1818            0.0000000000
      5424      1781  TIP3      H1             26.2489464810       10.7268267438       21.6423318360  SOLV      1818            0.0000000000
      5425      1781  TIP3      H2             26.8595664810       11.2830967438       22.9110218360  SOLV      1818            0.0000000000
      5426      1782  TIP3      OH2            34.1437364810       10.3671167438       30.7513018360  SOLV      1819            0.0000000000
      5427      1782  TIP3      H1             34.7856164810       10.8237467438       30.2075218360  SOLV      1819            0.0000000000
      5428      1782  TIP3      H2             33.3134264810       10.4803567438       30.2887118360  SOLV      1819            0.0000000000
      5429      1783  TIP3      OH2            30.8915264810        4.0482867438       20.1638018360  SOLV      1820            0.0000000000
      5430      1783  TIP3      H1             29.9529464810        4.1598467438       20.0126818360  SOLV      1820            0.0000000000
      5431      1783  TIP3      H2             31.1887364810        4.9049767438       20.4703718360  SOLV      1820            0.0000000000
      5432      1784  TIP3      OH2            28.5130564810       11.4186267438       33.2014518360  SOLV      1821            0.0000000000
      5433      1784  TIP3      H1             28.1676664810       11.0368667438       34.0084118360  SOLV      1821            0.0000000000
      5434      1784  TIP3      H2             28.3130664810       12.3519867438       33.2727418360  SOLV      1821            0.0000000000
      5435      1785  TIP3      OH2            31.6098764810        5.9155567438       21.8245418360  SOLV      1822            0.0000000000
      5436      1785  TIP3      H1             32.5017764810        5.7780567438       22.1436618360  SOLV      1822            0.0000000000
      5437      1785  TIP3      H2             31.6662364810        6.7061667438       21.2878918360  SOLV      1822            0.0000000000
      5438      1786  TIP3      OH2            22.1186764810       10.5292967438       27.7343318360  SOLV      1823            0.0000000000
      5439      1786  TIP3      H1             22.8633964810       10.5268667438       27.1329818360  SOLV      1823            0.0000000000
      5440      1786  TIP3      H2             22.1963364810        9.7056767438       28.2158418360  SOLV      1823            0.0000000000
      5441      1787  TIP3      OH2            29.1192564810       12.6927267438       20.9900018360  SOLV      1824            0.0000000000
      5442      1787  TIP3      H1             28.8240964810       13.5195167438       21.3714818360  SOLV      1824            0.0000000000
      5443      1787  TIP3      H2             28.4162564810       12.0734167438       21.1861418360  SOLV      1824            0.0000000000
      5444      1788  TIP3      OH2            19.1266464810        8.9899867438       33.0491818360  SOLV      1825            0.0000000000
      5445      1788  TIP3      H1             19.3495064810        8.5719467438       33.8809318360  SOLV      1825            0.0000000000
      5446      1788  TIP3      H2             18.5246564810        8.3774867438       32.6264618360  SOLV      1825            0.0000000000
      5447      1789  TIP3      OH2            26.1431364810        8.5069767438       35.2621518360  SOLV      1826            0.0000000000
      5448      1789  TIP3      H1             25.8472164810        8.3412767438       34.3670618360  SOLV      1826            0.0000000000
      5449      1789  TIP3      H2             27.0746564810        8.2870067438       35.2515418360  SOLV      1826            0.0000000000
      5450      1790  TIP3      OH2            30.7634164810       13.8801767438       33.1519518360  SOLV      1827            0.0000000000
      5451      1790  TIP3      H1             29.8628464810       14.0634367438       32.8843418360  SOLV      1827            0.0000000000
      5452      1790  TIP3      H2             30.7975264810       14.1391067438       34.0728318360  SOLV      1827            0.0000000000
      5453      1791  TIP3      OH2            36.4947464810        6.1249667438       21.5192118360  SOLV      1828            0.0000000000
      5454      1791  TIP3      H1             35.9403764810        5.7287667438       20.8469618360  SOLV      1828            0.0000000000
      5455      1791  TIP3      H2             36.5951064810        7.0354867438       21.2415418360  SOLV      1828            0.0000000000
      5456      1792  TIP3      OH2            36.4579464810       11.9251367438       34.3563618360  SOLV      1829            0.0000000000
      5457      1792  TIP3      H1             35.6067964810       12.1635167438       33.9890018360  SOLV      1829            0.0000000000
      5458      1792  TIP3      H2             37.0482864810       11.9084567438       33.6030718360  SOLV      1829            0.0000000000
      5459      1793  TIP3      OH2            34.7899164810       14.9110067438       21.9844218360  SOLV      1830            0.0000000000
      5460      1793  TIP3      H1             34.4170264810       14.0853867438       22.2934818360  SOLV      1830            0.0000000000
      5461      1793  TIP3      H2             35.0672664810       14.7279467438       21.0867618360  SOLV      1830            0.0000000000
      5462      1794  TIP3      OH2            31.9503064810        9.7189567438       29.0056118360  SOLV      1831            0.0000000000
      5463      1794  TIP3      H1             31.0219964810        9.4871467438       28.9785418360  SOLV      1831            0.0000000000
      5464      1794  TIP3      H2             32.4014164810        8.9419367438       28.6754918360  SOLV      1831            0.0000000000
      5465      1795  TIP3      OH2            24.4936164810       14.0471167438       25.1384818360  SOLV      1832            0.0000000000
      5466      1795  TIP3      H1             25.0208364810       14.8205567438       24.9383618360  SOLV      1832            0.0000000000
      5467      1795  TIP3      H2             23.6134664810       14.2720367438       24.8368818360  SOLV      1832            0.0000000000
      5468      1796  TIP3      OH2            20.2483864810        8.9095267438       19.7257218360  SOLV      1833            0.0000000000
      5469      1796  TIP3      H1             20.8643764810        9.5362467438       20.1052018360  SOLV      1833            0.0000000000
      5470      1796  TIP3      H2             19.3866464810        9.2255067438       19.9973718360  SOLV      1833            0.0000000000
      5471      1797  TIP3      OH2            25.9208464810       11.7101067438       24.7149118360  SOLV      1834            0.0000000000
      5472      1797  TIP3      H1             25.6798464810       12.6355467438       24.7564418360  SOLV      1834            0.0000000000
      5473      1797  TIP3      H2             25.1802064810       11.2512367438       25.1113018360  SOLV      1834            0.0000000000
      5474      1798  TIP3      OH2            26.4355064810       15.8594667438       31.0300218360  SOLV      1835            0.0000000000
      5475      1798  TIP3      H1             26.7979764810       16.7140267438       30.7964618360  SOLV      1835            0.0000000000
      5476      1798  TIP3      H2             26.9670264810       15.5676267438       31.7706518360  SOLV      1835            0.0000000000
      5477      1799  TIP3      OH2            24.6039264810       16.7318667438       24.2601318360  SOLV      1836            0.0000000000
      5478      1799  TIP3      H1             23.6539764810       16.8376067438       24.3114618360  SOLV      1836            0.0000000000
      5479      1799  TIP3      H2             24.9557364810       17.5526067438       24.6048818360  SOLV      1836            0.0000000000
      5480      1800  TIP3      OH2            29.9795864810       11.9585367438       30.7305818360  SOLV      1837            0.0000000000
      5481      1800  TIP3      H1             29.5537164810       11.7307067438       31.5569818360  SOLV      1837            0.0000000000
      5482      1800  TIP3      H2             30.5601664810       11.2197167438       30.5481118360  SOLV      1837            0.0000000000
      5483      1801  TIP3      OH2            32.1824764810       12.8875867438       19.8044818360  SOLV      1838            0.0000000000
      5484      1801  TIP3      H1             32.5357864810       12.5075667438       20.6088318360  SOLV      1838            0.0000000000
      5485      1801  TIP3      H2             31.2338264810       12.7940667438       19.8914118360  SOLV      1838            0.0000000000
      5486      1802  TIP3      OH2            32.6380064810       16.5104867438       33.2000618360  SOLV      1839            0.0000000000
      5487      1802  TIP3      H1             32.0363264810       15.9547767438       32.7046918360  SOLV      1839            0.0000000000
      5488      1802  TIP3      H2             32.9193764810       17.1774667438       32.5738018360  SOLV      1839            0.0000000000
      5489      1803  TIP3      OH2            36.6859164810       17.3668367438       20.0055018360  SOLV      1840            0.0000000000
      5490      1803  TIP3      H1             37.4297064810       17.9528867438       19.8656618360  SOLV      1840            0.0000000000
      5491      1803  TIP3      H2             35.9917264810       17.9354167438       20.3387418360  SOLV      1840            0.0000000000
      5492      1804  TIP3      OH2            20.7605964810        3.7432567438       32.6073218360  SOLV      1841            0.0000000000
      5493      1804  TIP3      H1             19.8678264810        4.0817967438       32.5397218360  SOLV      1841            0.0000000000
      5494      1804  TIP3      H2             20.6618764810        2.8878667438       33.0254018360  SOLV      1841            0.0000000000
      5495      1805  TIP3      OH2            33.0484064810       11.5597867438       22.0312718360  SOLV      1842            0.0000000000
      5496      1805  TIP3      H1             32.7711664810       10.8317167438       22.5873818360  SOLV      1842            0.0000000000
      5497      1805  TIP3      H2             33.9757064810       11.6789867438       22.2365318360  SOLV      1842            0.0000000000
      5498      1806  TIP3      OH2            20.4117964810       15.5476967438       31.0422618360  SOLV      1843            0.0000000000
      5499      1806  TIP3      H1             20.6288264810       14.6159367438       31.0112318360  SOLV      1843            0.0000000000
      5500      1806  TIP3      H2             20.6581464810       15.8221967438       31.9255418360  SOLV      1843            0.0000000000
      5501      1807  TIP3      OH2            26.2732564810       13.9991967438       18.2514818360  SOLV      1844            0.0000000000
      5502      1807  TIP3      H1             26.5122364810       13.2510067438       17.7043718360  SOLV      1844            0.0000000000
      5503      1807  TIP3      H2             26.0043864810       13.6113667438       19.0842618360  SOLV      1844            0.0000000000
      5504      1808  TIP3      OH2            25.2103164810       13.5695767438       20.7077418360  SOLV      1845            0.0000000000
      5505      1808  TIP3      H1             25.3571164810       13.0495567438       21.4978318360  SOLV      1845            0.0000000000
      5506      1808  TIP3      H2             25.2074864810       14.4763367438       21.0143318360  SOLV      1845            0.0000000000
      5507      1809  TIP3      OH2            21.6634264810       10.8219067438       21.2182818360  SOLV      1846            0.0000000000
      5508      1809  TIP3      H1             20.9773564810       11.1741567438       21.7852518360  SOLV      1846            0.0000000000
      5509      1809  TIP3      H2             22.1862164810       11.5848667438       20.9717118360  SOLV      1846            0.0000000000
      5510      1810  TIP3      OH2            29.4949364810        3.4842867438       31.4971818360  SOLV      1847            0.0000000000
      5511      1810  TIP3      H1             30.1937264810        3.5581567438       32.1471518360  SOLV      1847            0.0000000000
      5512      1810  TIP3      H2             29.1140764810        2.6197867438       31.6514718360  SOLV      1847            0.0000000000
      5513      1811  TIP3      OH2            30.2794264810        3.1364567438       22.5944118360  SOLV      1848            0.0000000000
      5514      1811  TIP3      H1             30.4992564810        3.6079967438       21.7909518360  SOLV      1848            0.0000000000
      5515      1811  TIP3      H2             30.8378264810        3.5307167438       23.2644718360  SOLV      1848            0.0000000000
      5516      1812  TIP3      OH2            27.9480364810       15.2669367438       21.4571618360  SOLV      1849            0.0000000000
      5517      1812  TIP3      H1             27.1316464810       15.7639067438       21.5095918360  SOLV      1849            0.0000000000
      5518      1812  TIP3      H2             28.4776664810       15.7422867438       20.8170418360  SOLV      1849            0.0000000000
      5519      1813  TIP3      OH2            27.4794164810        4.8643367438       23.4292518360  SOLV      1850            0.0000000000
      5520      1813  TIP3      H1             28.2916764810        5.3686567438       23.4754218360  SOLV      1850            0.0000000000
      5521      1813  TIP3      H2             27.2347164810        4.7193067438       24.3432118360  SOLV      1850            0.0000000000
      5522      1814  TIP3      OH2            28.0150564810        5.8506067438       32.6139118360  SOLV      1851            0.0000000000
      5523      1814  TIP3      H1             28.1340864810        6.4241467438       33.3709518360  SOLV      1851            0.0000000000
      5524      1814  TIP3      H2             28.6705164810        5.1625467438       32.7286918360  SOLV      1851            0.0000000000
      5525      1815  TIP3      OH2            28.3630864810        1.9456367438       24.3673618360  SOLV      1852            0.0000000000
      5526      1815  TIP3      H1             28.0164364810        2.5626967438       25.0117918360  SOLV      1852            0.0000000000
      5527      1815  TIP3      H2             29.0217764810        2.4462067438       23.8859118360  SOLV      1852            0.0000000000
      5528      1816  TIP3      OH2            25.2863464810       16.3106567438       21.4388518360  SOLV      1853            0.0000000000
      5529      1816  TIP3      H1             25.4472164810       17.1104067438       20.9381118360  SOLV      1853            0.0000000000
      5530      1816  TIP3      H2             25.0891264810       16.6172567438       22.3239118360  SOLV      1853            0.0000000000
      5531      1817  TIP3      OH2            24.0207864810        3.0085767438       21.0546118360  SOLV      1854            0.0000000000
      5532      1817  TIP3      H1             23.9372664810        3.8968867438       21.4012518360  SOLV      1854            0.0000000000
      5533      1817  TIP3      H2             24.9108164810        2.7432467438       21.2862918360  SOLV      1854            0.0000000000
      5534      1818  TIP3      OH2            34.2196364810        3.7576367438       33.4488818360  SOLV      1855            0.0000000000
      5535      1818  TIP3      H1             33.3032164810        4.0198067438       33.3612518360  SOLV      1855            0.0000000000
      5536      1818  TIP3      H2             34.5551364810        3.7545367438       32.5524118360  SOLV      1855            0.0000000000
      5537      1819  TIP3      OH2            32.8217364810        7.5077367438       27.5446118360  SOLV      1856            0.0000000000
      5538      1819  TIP3      H1             32.0241764810        7.0927567438       27.2161118360  SOLV      1856            0.0000000000
      5539      1819  TIP3      H2             33.2668464810        6.8171067438       28.0356618360  SOLV      1856            0.0000000000
      5540      1820  TIP3      OH2            22.2793164810       13.4357967438       20.1150618360  SOLV      1857            0.0000000000
      5541      1820  TIP3      H1             22.8714664810       14.1352767438       20.3913018360  SOLV      1857            0.0000000000
      5542      1820  TIP3      H2             22.7386164810       13.0027467438       19.3955218360  SOLV      1857            0.0000000000
      5543      1821  TIP3      OH2            20.5952364810        6.1000967438       19.2310018360  SOLV      1858            0.0000000000
      5544      1821  TIP3      H1             20.5504964810        7.0394067438       19.4097018360  SOLV      1858            0.0000000000
      5545      1821  TIP3      H2             19.7075564810        5.8645867438       18.9612118360  SOLV      1858            0.0000000000
      5546      1822  TIP3      OH2            33.9081964810       16.7639867438       29.1669618360  SOLV      1859            0.0000000000
      5547      1822  TIP3      H1             33.7526264810       17.4424267438       28.5098918360  SOLV      1859            0.0000000000
      5548      1822  TIP3      H2             34.8408364810       16.8359167438       29.3700218360  SOLV      1859            0.0000000000
      5549      1823  TIP3      OH2            21.4034364810        0.8817567438       27.9041018360  SOLV      1860            0.0000000000
      5550      1823  TIP3      H1             21.1744164810        0.9410067438       26.9766018360  SOLV      1860            0.0000000000
      5551      1823  TIP3      H2             20.9607764810        0.0903067438       28.2105118360  SOLV      1860            0.0000000000
      5552      1824  TIP3      OH2            20.3337664810       14.8224667438       24.0646818360  SOLV      1861            0.0000000000
      5553      1824  TIP3      H1             19.5016264810       15.2947367438       24.0918218360  SOLV      1861            0.0000000000
      5554      1824  TIP3      H2             20.8795964810       15.3322267438       23.4659918360  SOLV      1861            0.0000000000
      5555      1825  TIP3      OH2            19.6221364810       17.4348367438       35.3944818360  SOLV      1862            0.0000000000
      5556      1825  TIP3      H1             20.1623564810       17.2182367438       36.1544018360  SOLV      1862            0.0000000000
      5557      1825  TIP3      H2             19.1409364810       16.6294367438       35.2047318360  SOLV      1862            0.0000000000
      5558      1826  TIP3      OH2            24.2194764810       16.3542767438       37.0149018360  SOLV      1863            0.0000000000
      5559      1826  TIP3      H1             24.9871964810       15.8953567438       37.3558218360  SOLV      1863            0.0000000000
      5560      1826  TIP3      H2             24.1980964810       16.1282567438       36.0850218360  SOLV      1863            0.0000000000
      5561      1827  TIP3      OH2            28.3114364810       15.8623367438       18.3900818360  SOLV      1864            0.0000000000
      5562      1827  TIP3      H1             27.6675364810       15.2311967438       18.7114518360  SOLV      1864            0.0000000000
      5563      1827  TIP3      H2             29.0732664810       15.3311367438       18.1584318360  SOLV      1864            0.0000000000
      5564      1828  TIP3      OH2            30.7963464810       14.7343867438       35.7440518360  SOLV      1865            0.0000000000
      5565      1828  TIP3      H1             30.4452964810       13.8776867438       35.9870918360  SOLV      1865            0.0000000000
      5566      1828  TIP3      H2             31.5226664810       14.8770567438       36.3509518360  SOLV      1865            0.0000000000
      5567      1829  TIP3      OH2            32.9157264810       15.6793267438       18.6238818360  SOLV      1866            0.0000000000
      5568      1829  TIP3      H1             33.1987664810       14.8848467438       19.0765718360  SOLV      1866            0.0000000000
      5569      1829  TIP3      H2             33.6555164810       15.9124267438       18.0629918360  SOLV      1866            0.0000000000
      5570      1830  TIP3      OH2            19.5290864810       11.2452467438       36.3489118360  SOLV      1867            0.0000000000
      5571      1830  TIP3      H1             19.6731364810       10.3433167438       36.0625818360  SOLV      1867            0.0000000000
      5572      1830  TIP3      H2             18.7568264810       11.5314567438       35.8611418360  SOLV      1867            0.0000000000
      5573      1831  TIP3      OH2            23.8704564810       11.5888167438       18.4813718360  SOLV      1868            0.0000000000
      5574      1831  TIP3      H1             23.9348664810       10.7947767438       19.0120118360  SOLV      1868            0.0000000000
      5575      1831  TIP3      H2             24.5233764810       11.4700967438       17.7915718360  SOLV      1868            0.0000000000
      5576      1832  TIP3      OH2            26.1846964810       11.2150567438       35.7815518360  SOLV      1869            0.0000000000
      5577      1832  TIP3      H1             25.8560764810       11.4858667438       34.9242918360  SOLV      1869            0.0000000000
      5578      1832  TIP3      H2             26.3365164810       10.2740367438       35.6940518360  SOLV      1869            0.0000000000
      5579      1833  TIP3      OH2            29.2227964810       12.6359867438       18.2171718360  SOLV      1870            0.0000000000
      5580      1833  TIP3      H1             28.9542064810       12.8161967438       19.1180618360  SOLV      1870            0.0000000000
      5581      1833  TIP3      H2             29.0163564810       11.7106067438       18.0857518360  SOLV      1870            0.0000000000
      5582      1834  TIP3      OH2            31.9192164810       11.1307867438       33.1647818360  SOLV      1871            0.0000000000
      5583      1834  TIP3      H1             32.6646964810       11.7191567438       33.0451818360  SOLV      1871            0.0000000000
      5584      1834  TIP3      H2             31.1618964810       11.7127567438       33.2280918360  SOLV      1871            0.0000000000
      5585      1835  TIP3      OH2            20.3617364810        8.4455767438       35.7688418360  SOLV      1872            0.0000000000
      5586      1835  TIP3      H1             20.7698564810        7.5882367438       35.6479018360  SOLV      1872            0.0000000000
      5587      1835  TIP3      H2             20.1014964810        8.4597067438       36.6898718360  SOLV      1872            0.0000000000
      5588      1836  TIP3      OH2            25.0198364810        9.5614367438       20.7871718360  SOLV      1873            0.0000000000
      5589      1836  TIP3      H1             24.5600364810        9.0772667438       21.4730218360  SOLV      1873            0.0000000000
      5590      1836  TIP3      H2             25.2747064810        8.8929767438       20.1512218360  SOLV      1873            0.0000000000
      5591      1837  TIP3      OH2            24.3087664810        7.4541467438       33.1431318360  SOLV      1874            0.0000000000
      5592      1837  TIP3      H1             23.6903764810        8.1288067438       33.4236018360  SOLV      1874            0.0000000000
      5593      1837  TIP3      H2             24.6528864810        7.7755367438       32.3097518360  SOLV      1874            0.0000000000
      5594      1838  TIP3      OH2            26.0908764810        7.8046167438       19.0494918360  SOLV      1875            0.0000000000
      5595      1838  TIP3      H1             25.9103764810        7.6497367438       18.1223218360  SOLV      1875            0.0000000000
      5596      1838  TIP3      H2             27.0409264810        7.9124867438       19.0942818360  SOLV      1875            0.0000000000
      5597      1839  TIP3      OH2            29.3285864810        9.9256767438       36.4206118360  SOLV      1876            0.0000000000
      5598      1839  TIP3      H1             30.2817064810       10.0095867438       36.3932118360  SOLV      1876            0.0000000000
      5599      1839  TIP3      H2             29.1680464810        9.2138567438       37.0401018360  SOLV      1876            0.0000000000
      5600      1840  TIP3      OH2            35.4807064810       10.1590367438       18.4953018360  SOLV      1877            0.0000000000
      5601      1840  TIP3      H1             35.2071864810        9.7345867438       17.6821318360  SOLV      1877            0.0000000000
      5602      1840  TIP3      H2             35.5201164810       11.0904867438       18.2783418360  SOLV      1877            0.0000000000
      5603      1841  TIP3      OH2            24.6481364810        4.8092267438       34.2254418360  SOLV      1878            0.0000000000
      5604      1841  TIP3      H1             24.7982264810        4.0803567438       33.6234118360  SOLV      1878            0.0000000000
      5605      1841  TIP3      H2             24.6503764810        5.5863967438       33.6666618360  SOLV      1878            0.0000000000
      5606      1842  TIP3      OH2            25.0607064810        3.1788067438       31.7181818360  SOLV      1879            0.0000000000
      5607      1842  TIP3      H1             25.5964564810        3.6304767438       31.0661118360  SOLV      1879            0.0000000000
      5608      1842  TIP3      H2             24.2086664810        3.0707867438       31.2955918360  SOLV      1879            0.0000000000
      5609      1843  TIP3      OH2            26.6425464810        8.6184267438       31.9577018360  SOLV      1880            0.0000000000
      5610      1843  TIP3      H1             27.3930264810        8.4621767438       31.3844818360  SOLV      1880            0.0000000000
      5611      1843  TIP3      H2             26.3033764810        9.4700867438       31.6822518360  SOLV      1880            0.0000000000
      5612      1844  TIP3      OH2            31.0581664810        6.4336067438       36.9862318360  SOLV      1881            0.0000000000
      5613      1844  TIP3      H1             31.2502964810        5.5025467438       36.8746818360  SOLV      1881            0.0000000000
      5614      1844  TIP3      H2             31.9157964810        6.8585567438       36.9757718360  SOLV      1881            0.0000000000
      5615      1845  TIP3      OH2            32.3748864810        9.2221267438       35.0635018360  SOLV      1882            0.0000000000
      5616      1845  TIP3      H1             32.0933864810        9.9315867438       34.4858818360  SOLV      1882            0.0000000000
      5617      1845  TIP3      H2             33.3173164810        9.1494267438       34.9126218360  SOLV      1882            0.0000000000
      5618      1846  TIP3      OH2            23.1267664810        6.0075767438       36.1370018360  SOLV      1883            0.0000000000
      5619      1846  TIP3      H1             22.3596664810        5.4750567438       35.9267618360  SOLV      1883            0.0000000000
      5620      1846  TIP3      H2             23.8056664810        5.6976167438       35.5376318360  SOLV      1883            0.0000000000
      5621      1847  TIP3      OH2            25.8662564810        0.6353767438       32.1495418360  SOLV      1884            0.0000000000
      5622      1847  TIP3      H1             25.7682164810        1.5816967438       32.0441618360  SOLV      1884            0.0000000000
      5623      1847  TIP3      H2             25.1238764810        0.2627567438       31.6738918360  SOLV      1884            0.0000000000
      5624      1848  TIP3      OH2            27.1303064810        4.9569167438       35.7133818360  SOLV      1885            0.0000000000
      5625      1848  TIP3      H1             26.8948464810        4.7375867438       36.6148718360  SOLV      1885            0.0000000000
      5626      1848  TIP3      H2             26.3469964810        4.7500367438       35.2036318360  SOLV      1885            0.0000000000
      5627      1849  TIP3      OH2            29.8459664810        4.0842667438       34.7887318360  SOLV      1886            0.0000000000
      5628      1849  TIP3      H1             28.8985064810        4.1162367438       34.9210618360  SOLV      1886            0.0000000000
      5629      1849  TIP3      H2             30.1586364810        3.4589767438       35.4425518360  SOLV      1886            0.0000000000
      5630      1850  TIP3      OH2            31.4801164810        2.7183767438       36.7939218360  SOLV      1887            0.0000000000
      5631      1850  TIP3      H1             31.3832964810        1.7661067438       36.7881118360  SOLV      1887            0.0000000000
      5632      1850  TIP3      H2             31.1584264810        2.9870567438       37.6544718360  SOLV      1887            0.0000000000
      5633      1851  TIP3      OH2            21.3070464810        3.9279567438       35.8414718360  SOLV      1888            0.0000000000
      5634      1851  TIP3      H1             21.5187864810        3.2215667438       35.2312218360  SOLV      1888            0.0000000000
      5635      1851  TIP3      H2             21.1957964810        3.4905567438       36.6855918360  SOLV      1888            0.0000000000
      5636      1852  TIP3      OH2            26.4418164810        1.6119567438       36.8744518360  SOLV      1889            0.0000000000
      5637      1852  TIP3      H1             26.3100364810        1.1363367438       36.0543018360  SOLV      1889            0.0000000000
      5638      1852  TIP3      H2             25.8425564810        2.3563167438       36.8191618360  SOLV      1889            0.0000000000
      5639      1853  TIP3      OH2            25.9880464810       18.4949867438       20.0508518360  SOLV      1890            0.0000000000
      5640      1853  TIP3      H1             26.9211164810       18.6528567438       20.1946918360  SOLV      1890            0.0000000000
      5641      1853  TIP3      H2             25.7239264810       19.1702867438       19.4260018360  SOLV      1890            0.0000000000
      5642      1854  TIP3      OH2            19.5565364810       13.1313667438       19.5336618360  SOLV      1891            0.0000000000
      5643      1854  TIP3      H1             20.4704564810       13.2102567438       19.8070518360  SOLV      1891            0.0000000000
      5644      1854  TIP3      H2             19.5638464810       12.4443267438       18.8672218360  SOLV      1891            0.0000000000
      5645      1855  TIP3      OH2            18.2055964810       18.5242167438       24.6110518360  SOLV      1892            0.0000000000
      5646      1855  TIP3      H1             17.5583064810       18.0623867438       24.0781718360  SOLV      1892            0.0000000000
      5647      1855  TIP3      H2             18.5600564810       17.8525467438       25.1936718360  SOLV      1892            0.0000000000
      5648      1856  TIP3      OH2            19.0755164810       16.6049167438       26.4156718360  SOLV      1893            0.0000000000
      5649      1856  TIP3      H1             18.7411964810       15.7246467438       26.5876918360  SOLV      1893            0.0000000000
      5650      1856  TIP3      H2             19.2977564810       16.9504167438       27.2802318360  SOLV      1893            0.0000000000
      5651      1857  TIP3      OH2            36.6239964810       17.4145567438       29.3961518360  SOLV      1894            0.0000000000
      5652      1857  TIP3      H1             36.6026664810       17.5993967438       30.3350918360  SOLV      1894            0.0000000000
      5653      1857  TIP3      H2             37.3146164810       17.9829567438       29.0552918360  SOLV      1894            0.0000000000
      5654      1858  TIP3      OH2            36.1872864810       16.9816667438       32.3180618360  SOLV      1895            0.0000000000
      5655      1858  TIP3      H1             35.7001564810       16.2460767438       31.9468018360  SOLV      1895            0.0000000000
      5656      1858  TIP3      H2             36.7365564810       16.5880567438       32.9960018360  SOLV      1895            0.0000000000
      5657      1859  TIP3      OH2            34.6380164810       12.7714767438       36.9560918360  SOLV      1896            0.0000000000
      5658      1859  TIP3      H1             33.7721264810       12.6664467438       37.3503218360  SOLV      1896            0.0000000000
      5659      1859  TIP3      H2             35.0146064810       13.5298067438       37.4025618360  SOLV      1896            0.0000000000
      5660      1860  TIP3      OH2            35.9389864810       11.0278467438       22.4703418360  SOLV      1897            0.0000000000
      5661      1860  TIP3      H1             36.7891264810       11.4489367438       22.5975018360  SOLV      1897            0.0000000000
      5662      1860  TIP3      H2             35.9444964810       10.2878567438       23.0774818360  SOLV      1897            0.0000000000
      5663      1861  TIP3      OH2            36.3335464810        9.0815867438       24.2939118360  SOLV      1898            0.0000000000
      5664      1861  TIP3      H1             35.6070064810        8.6018467438       24.6916718360  SOLV      1898            0.0000000000
      5665      1861  TIP3      H2             36.9148764810        9.2870567438       25.0260718360  SOLV      1898            0.0000000000
      5666      1862  TIP3      OH2            36.0926664810       11.8663367438       29.2416718360  SOLV      1899            0.0000000000
      5667      1862  TIP3      H1             36.9260864810       11.4883367438       28.9610318360  SOLV      1899            0.0000000000
      5668      1862  TIP3      H2             36.2046964810       12.8094567438       29.1225818360  SOLV      1899            0.0000000000
      5669      1863  TIP3      OH2            34.5788964810       14.7440867438       31.5485118360  SOLV      1900            0.0000000000
      5670      1863  TIP3      H1             33.9314264810       15.0692367438       32.1740318360  SOLV      1900            0.0000000000
      5671      1863  TIP3      H2             34.0612964810       14.3038567438       30.8743418360  SOLV      1900            0.0000000000
      5672      1864  TIP3      OH2            36.6018564810        8.9824367438       20.6850418360  SOLV      1901            0.0000000000
      5673      1864  TIP3      H1             36.0799664810        9.3388467438       19.9661318360  SOLV      1901            0.0000000000
      5674      1864  TIP3      H2             36.5687764810        9.6572167438       21.3631318360  SOLV      1901            0.0000000000
      5675      1865  TIP3      OH2            34.9507564810        6.2219967438       19.2357518360  SOLV      1902            0.0000000000
      5676      1865  TIP3      H1             35.0471964810        6.8886967438       18.5557218360  SOLV      1902            0.0000000000
      5677      1865  TIP3      H2             34.8107164810        5.4066267438       18.7543018360  SOLV      1902            0.0000000000
      5678      1866  TIP3      OH2            34.1202264810        7.6022367438       24.8567818360  SOLV      1903            0.0000000000
      5679      1866  TIP3      H1             33.9701064810        6.6570967438       24.8365618360  SOLV      1903            0.0000000000
      5680      1866  TIP3      H2             33.7666764810        7.8833767438       25.7006918360  SOLV      1903            0.0000000000
      5681      1867  TIP3      OH2            19.1554664810        9.6804567438       28.8671618360  SOLV      1904            0.0000000000
      5682      1867  TIP3      H1             19.3397564810        9.5986267438       27.9314518360  SOLV      1904            0.0000000000
      5683      1867  TIP3      H2             20.0047564810        9.5561567438       29.2908018360  SOLV      1904            0.0000000000
      5684      1868  TIP3      OH2            34.9765164810        9.5725667438       34.4956118360  SOLV      1905            0.0000000000
      5685      1868  TIP3      H1             35.5592464810        8.8377967438       34.6873318360  SOLV      1905            0.0000000000
      5686      1868  TIP3      H2             35.5404464810       10.3445967438       34.5421918360  SOLV      1905            0.0000000000
      5687      1869  TIP3      OH2            36.4732264810        7.4751467438       35.1801518360  SOLV      1906            0.0000000000
      5688      1869  TIP3      H1             35.6098964810        7.0963567438       35.0146218360  SOLV      1906            0.0000000000
      5689      1869  TIP3      H2             37.0775964810        6.7366267438       35.1057318360  SOLV      1906            0.0000000000
      5690      1870  TIP3      OH2            34.1981364810        3.6299767438       18.3533018360  SOLV      1907            0.0000000000
      5691      1870  TIP3      H1             34.8087164810        3.2586567438       18.9901218360  SOLV      1907            0.0000000000
      5692      1870  TIP3      H2             33.3612864810        3.2086667438       18.5493018360  SOLV      1907            0.0000000000
      5693      1871  TIP3      OH2            33.8307064810        5.1848167438       23.3192918360  SOLV      1908            0.0000000000
      5694      1871  TIP3      H1             34.1104164810        4.2778567438       23.4434618360  SOLV      1908            0.0000000000
      5695      1871  TIP3      H2             34.5898764810        5.6189667438       22.9302118360  SOLV      1908            0.0000000000
      5696      1872  TIP3      OH2            34.4425364810        5.7665567438       28.7551818360  SOLV      1909            0.0000000000
      5697      1872  TIP3      H1             35.3753364810        5.9785467438       28.7207818360  SOLV      1909            0.0000000000
      5698      1872  TIP3      H2             34.2072864810        5.8677667438       29.6774818360  SOLV      1909            0.0000000000
      5699      1873  TIP3      OH2            34.4717264810        6.5030867438       31.5311218360  SOLV      1910            0.0000000000
      5700      1873  TIP3      H1             33.6288564810        6.7711267438       31.8971018360  SOLV      1910            0.0000000000
      5701      1873  TIP3      H2             34.9141564810        7.3252767438       31.3202318360  SOLV      1910            0.0000000000
      5702      1874  TIP3      OH2            18.7529464810        4.9509567438       35.0080418360  SOLV      1911            0.0000000000
      5703      1874  TIP3      H1             19.6724364810        4.8287867438       35.2443518360  SOLV      1911            0.0000000000
      5704      1874  TIP3      H2             18.3033964810        4.2009267438       35.3973918360  SOLV      1911            0.0000000000
      5705      1875  TIP3      OH2            36.7548864810        0.4831067438       36.8846218360  SOLV      1912            0.0000000000
      5706      1875  TIP3      H1             37.1045864810       -0.1705432562       36.2790918360  SOLV      1912            0.0000000000
      5707      1875  TIP3      H2             36.9018364810        1.3205167438       36.4448818360  SOLV      1912            0.0000000000
      5708      1876  TIP3      OH2            34.4441864810        2.4477467438       23.3674918360  SOLV      1913            0.0000000000
      5709      1876  TIP3      H1             34.6266864810        1.9988967438       24.1929918360  SOLV      1913            0.0000000000
      5710      1876  TIP3      H2             33.8444764810        1.8631867438       22.9039518360  SOLV      1913            0.0000000000
      5711      1877  TIP3      OH2            19.9741964810        3.2631167438       27.8993318360  SOLV      1914            0.0000000000
      5712      1877  TIP3      H1             20.4193564810        2.4713667438       28.2013018360  SOLV      1914            0.0000000000
      5713      1877  TIP3      H2             20.4404964810        3.9796367438       28.3298918360  SOLV      1914            0.0000000000
      5714      1878  TIP3      OH2            18.2782264810        6.2624167438       28.9683518360  SOLV      1915            0.0000000000
      5715      1878  TIP3      H1             18.7702064810        6.0414667438       28.1775518360  SOLV      1915            0.0000000000
      5716      1878  TIP3      H2             18.6403164810        7.1027567438       29.2493018360  SOLV      1915            0.0000000000
      5717      1879  TIP3      OH2            36.2746064810        2.5925667438       35.2337518360  SOLV      1916            0.0000000000
      5718      1879  TIP3      H1             35.3571764810        2.8632767438       35.1981018360  SOLV      1916            0.0000000000
      5719      1879  TIP3      H2             36.3975464810        2.0574067438       34.4497218360  SOLV      1916            0.0000000000
      5720      1880  TIP3      OH2            36.3108064810        2.5155567438       19.8955218360  SOLV      1917            0.0000000000
      5721      1880  TIP3      H1             36.7230664810        1.7941267438       19.4203218360  SOLV      1917            0.0000000000
      5722      1880  TIP3      H2             36.9924564810        3.1850167438       19.9539518360  SOLV      1917            0.0000000000
      5723      1881  TIP3      OH2            18.5918764810        2.5203267438       23.0225918360  SOLV      1918            0.0000000000
      5724      1881  TIP3      H1             17.6667164810        2.7289867438       22.8931418360  SOLV      1918            0.0000000000
      5725      1881  TIP3      H2             19.0458664810        3.0044067438       22.3328218360  SOLV      1918            0.0000000000
      5726      1882  TIP3      OH2            33.3625964810       17.5044967438       24.9683318360  SOLV      1919            0.0000000000
      5727      1882  TIP3      H1             34.0148864810       17.1567067438       24.3602418360  SOLV      1919            0.0000000000
      5728      1882  TIP3      H2             33.8729764810       17.9928167438       25.6143018360  SOLV      1919            0.0000000000
      5729      1883  TIP3      OH2            18.5554164810        1.2582267438       31.3668418360  SOLV      1920            0.0000000000
      5730      1883  TIP3      H1             17.8904664810        1.0122567438       32.0099318360  SOLV      1920            0.0000000000
      5731      1883  TIP3      H2             18.1125464810        1.8802667438       30.7896418360  SOLV      1920            0.0000000000
      5732      1884  TIP3      OH2            20.7473464810       14.4336367438       35.5114218360  SOLV      1921            0.0000000000
      5733      1884  TIP3      H1             19.9265964810       14.6082867438       35.0508918360  SOLV      1921            0.0000000000
      5734      1884  TIP3      H2             20.4951264810       14.3601067438       36.4318618360  SOLV      1921            0.0000000000
      5735      1885  TIP3      OH2            23.7016364810       15.4077567438       31.7698218360  SOLV      1922            0.0000000000
      5736      1885  TIP3      H1             23.2767464810       16.2176067438       31.4872818360  SOLV      1922            0.0000000000
      5737      1885  TIP3      H2             24.6059164810       15.4931667438       31.4678018360  SOLV      1922            0.0000000000
      5738      1886  TIP3      OH2            28.0127764810       16.8067567438       34.7291918360  SOLV      1923            0.0000000000
      5739      1886  TIP3      H1             28.1975264810       16.4733667438       35.6072218360  SOLV      1923            0.0000000000
      5740      1886  TIP3      H2             28.8592264810       17.1166167438       34.4071118360  SOLV      1923            0.0000000000
      5741      1887  TIP3      OH2            30.3578164810       18.0926467438       33.9733318360  SOLV      1924            0.0000000000
      5742      1887  TIP3      H1             31.0347064810       17.4598767438       33.7332518360  SOLV      1924            0.0000000000
      5743      1887  TIP3      H2             30.6796964810       18.4936967438       34.7806618360  SOLV      1924            0.0000000000
      5744      1888  TIP3      OH2            35.2751964810        0.6821967438       33.0528318360  SOLV      1925            0.0000000000
      5745      1888  TIP3      H1             34.4625464810        1.0072267438       32.6653018360  SOLV      1925            0.0000000000
      5746      1888  TIP3      H2             35.5080464810       -0.0779532562       32.5197418360  SOLV      1925            0.0000000000
      5747      1889  TIP3      OH2            21.1033064810       18.6641467438       31.8173518360  SOLV      1926            0.0000000000
      5748      1889  TIP3      H1             20.3829464810       19.1042467438       31.3661218360  SOLV      1926            0.0000000000
      5749      1889  TIP3      H2             20.7377064810       18.4136167438       32.6657518360  SOLV      1926            0.0000000000
      5750      1890  TIP3      OH2            23.5705664810       18.2645367438       30.8470718360  SOLV      1927            0.0000000000
      5751      1890  TIP3      H1             22.7057864810       18.3363867438       31.2510818360  SOLV      1927            0.0000000000
      5752      1890  TIP3      H2             23.5154664810       18.8112667438       30.0633218360  SOLV      1927            0.0000000000
      5753      1891  TIP3      OH2            28.2811264810       18.1524267438       30.0226718360  SOLV      1928            0.0000000000
      5754      1891  TIP3      H1             27.8245264810       18.6813967438       29.3685118360  SOLV      1928            0.0000000000
      5755      1891  TIP3      H2             28.4439264810       18.7555667438       30.7479018360  SOLV      1928            0.0000000000
      5756      1892  TIP3      OH2            30.6087564810       17.0303867438       30.9677018360  SOLV      1929            0.0000000000
      5757      1892  TIP3      H1             29.7041264810       17.1954067438       30.7019118360  SOLV      1929            0.0000000000
      5758      1892  TIP3      H2             31.0376164810       17.8836067438       30.9020418360  SOLV      1929            0.0000000000
      5759      1893  TIP3      OH2            33.2129464810       18.6002967438       31.2624818360  SOLV      1930            0.0000000000
      5760      1893  TIP3      H1             33.0311464810       19.5161867438       31.0519718360  SOLV      1930            0.0000000000
      5761      1893  TIP3      H2             33.3897264810       18.1900067438       30.4159418360  SOLV      1930            0.0000000000
      5762      1894  TIP3      OH2            20.5181164810       17.2873967438       28.7275318360  SOLV      1931            0.0000000000
      5763      1894  TIP3      H1             20.4997164810       16.8619067438       29.5847618360  SOLV      1931            0.0000000000
      5764      1894  TIP3      H2             21.3229064810       16.9688967438       28.3187518360  SOLV      1931            0.0000000000
      5765      1895  TIP3      OH2            22.6594264810       15.9972667438       27.3825218360  SOLV      1932            0.0000000000
      5766      1895  TIP3      H1             22.4404964810       15.0810067438       27.5521218360  SOLV      1932            0.0000000000
      5767      1895  TIP3      H2             23.4836464810       16.1373067438       27.8486618360  SOLV      1932            0.0000000000
      5768      1896  TIP3      OH2            25.1966764810       16.4671967438       28.2313218360  SOLV      1933            0.0000000000
      5769      1896  TIP3      H1             25.4092464810       15.5790967438       27.9444118360  SOLV      1933            0.0000000000
      5770      1896  TIP3      H2             25.2611864810       16.4329667438       29.1857218360  SOLV      1933            0.0000000000
      5771      1897  TIP3      OH2            28.7050464810        2.1312567438       27.3756518360  SOLV      1934            0.0000000000
      5772      1897  TIP3      H1             28.0307264810        1.5018167438       27.6312318360  SOLV      1934            0.0000000000
      5773      1897  TIP3      H2             29.2689664810        1.6471467438       26.7724418360  SOLV      1934            0.0000000000
      5774      1898  TIP3      OH2            33.8477664810        0.2386567438       27.4883618360  SOLV      1935            0.0000000000
      5775      1898  TIP3      H1             34.4515264810        0.7861967438       26.9864618360  SOLV      1935            0.0000000000
      5776      1898  TIP3      H2             32.9779664810        0.5576967438       27.2477718360  SOLV      1935            0.0000000000
      5777      1899  TIP3      OH2            35.5748064810        1.3775267438       25.8214518360  SOLV      1936            0.0000000000
      5778      1899  TIP3      H1             36.1865564810        0.8630967438       25.2948118360  SOLV      1936            0.0000000000
      5779      1899  TIP3      H2             35.9571464810        2.2547367438       25.8448918360  SOLV      1936            0.0000000000
      5780      1900  TIP3      OH2            21.0317964810        0.7652867438       25.1976418360  SOLV      1937            0.0000000000
      5781      1900  TIP3      H1             20.2547764810        0.5307767438       24.6902318360  SOLV      1937            0.0000000000
      5782      1900  TIP3      H2             21.5621564810       -0.0315032562       25.2064418360  SOLV      1937            0.0000000000
      5783      1901  TIP3      OH2            19.8681364810        0.5630967438       21.0012518360  SOLV      1938            0.0000000000
      5784      1901  TIP3      H1             20.3072064810        1.1741467438       20.4096018360  SOLV      1938            0.0000000000
      5785      1901  TIP3      H2             19.2343764810        1.1015067438       21.4752518360  SOLV      1938            0.0000000000
      5786      1902  TIP3      OH2            25.6110564810        0.6919967438       25.0109518360  SOLV      1939            0.0000000000
      5787      1902  TIP3      H1             26.4853964810        1.0804267438       24.9813818360  SOLV      1939            0.0000000000
      5788      1902  TIP3      H2             25.4751364810        0.4767767438       25.9336718360  SOLV      1939            0.0000000000
      5789      1903  TIP3      OH2            31.1678964810        0.7219767438       26.6601218360  SOLV      1940            0.0000000000
      5790      1903  TIP3      H1             31.2440564810        0.8171367438       25.7107218360  SOLV      1940            0.0000000000
      5791      1903  TIP3      H2             30.8928164810       -0.1857332562       26.7890318360  SOLV      1940            0.0000000000
      5792      1904  TIP3      OH2            32.5211564810        0.7477567438       22.3526218360  SOLV      1941            0.0000000000
      5793      1904  TIP3      H1             31.8182664810        1.3626767438       22.1427618360  SOLV      1941            0.0000000000
      5794      1904  TIP3      H2             32.0762964810       -0.0895732562       22.4837118360  SOLV      1941            0.0000000000
      5795      1905  TIP3      OH2            19.7690864810       16.5113167438       21.8987618360  SOLV      1942            0.0000000000
      5796      1905  TIP3      H1             19.0840764810       16.4732067438       21.2312718360  SOLV      1942            0.0000000000
      5797      1905  TIP3      H2             19.7728064810       17.4240767438       22.1869718360  SOLV      1942            0.0000000000
      5798      1906  TIP3      OH2            21.7290464810        2.4792467438       19.4436618360  SOLV      1943            0.0000000000
      5799      1906  TIP3      H1             22.2203864810        1.8494867438       18.9162118360  SOLV      1943            0.0000000000
      5800      1906  TIP3      H2             22.3526764810        2.7751867438       20.1067818360  SOLV      1943            0.0000000000
      5801      1907  TIP3      OH2            26.7550564810        2.7723967438       21.9007118360  SOLV      1944            0.0000000000
      5802      1907  TIP3      H1             26.9331864810        2.1257167438       22.5835718360  SOLV      1944            0.0000000000
      5803      1907  TIP3      H2             26.7016764810        3.6061667438       22.3678218360  SOLV      1944            0.0000000000
      5804      1908  TIP3      OH2            28.6334364810       17.7208067438       20.2963818360  SOLV      1945            0.0000000000
      5805      1908  TIP3      H1             29.4994564810       18.0875467438       20.1182018360  SOLV      1945            0.0000000000
      5806      1908  TIP3      H2             28.3867164810       17.2816067438       19.4824618360  SOLV      1945            0.0000000000
      5807      1909  TIP3      OH2            35.3423964810       17.2838367438       22.9754918360  SOLV      1946            0.0000000000
      5808      1909  TIP3      H1             35.1481064810       16.5360467438       22.4104518360  SOLV      1946            0.0000000000
      5809      1909  TIP3      H2             35.3034064810       18.0418467438       22.3922818360  SOLV      1946            0.0000000000
      5810      1910  TIP3      OH2            20.9895964810        1.2794767438       34.7152618360  SOLV      1947            0.0000000000
      5811      1910  TIP3      H1             20.6234164810        0.5137367438       35.1577318360  SOLV      1947            0.0000000000
      5812      1910  TIP3      H2             21.9024464810        1.3084967438       35.0017718360  SOLV      1947            0.0000000000
      5813      1911  TIP3      OH2            22.9626764810        0.6299167438       36.2509718360  SOLV      1948            0.0000000000
      5814      1911  TIP3      H1             23.8610364810        0.3559367438       36.0663118360  SOLV      1948            0.0000000000
      5815      1911  TIP3      H2             22.5759864810       -0.1124832562       36.7152318360  SOLV      1948            0.0000000000
      5816      1912  TIP3      OH2            21.5872064810       17.4313967438       18.9239718360  SOLV      1949            0.0000000000
      5817      1912  TIP3      H1             21.3196664810       17.7176867438       19.7972818360  SOLV      1949            0.0000000000
      5818      1912  TIP3      H2             22.3584664810       16.8853167438       19.0762218360  SOLV      1949            0.0000000000
      5819      1913  TIP3      OH2            34.5600164810       16.0350767438       35.1256718360  SOLV      1950            0.0000000000
      5820      1913  TIP3      H1             33.7782064810       15.8488767438       34.6057318360  SOLV      1950            0.0000000000
      5821      1913  TIP3      H2             34.4880064810       16.9645067438       35.3429218360  SOLV      1950            0.0000000000
      5822      1914  TIP3      OH2            48.6100564810        9.9215167438       25.1563918360  SOLV      1951            0.0000000000
      5823      1914  TIP3      H1             48.6991664810       10.8653367438       25.0241018360  SOLV      1951            0.0000000000
      5824      1914  TIP3      H2             47.9718164810        9.6461567438       24.4983318360  SOLV      1951            0.0000000000
      5825      1915  TIP3      OH2            47.5431864810        9.1765867438       28.5752118360  SOLV      1952            0.0000000000
      5826      1915  TIP3      H1             47.5049364810        8.5302167438       29.2801718360  SOLV      1952            0.0000000000
      5827      1915  TIP3      H2             47.2208364810        8.7100267438       27.8040818360  SOLV      1952            0.0000000000
      5828      1916  TIP3      OH2            39.9116864810        8.7907967438       30.1682018360  SOLV      1953            0.0000000000
      5829      1916  TIP3      H1             39.9528964810        8.1651267438       30.8914418360  SOLV      1953            0.0000000000
      5830      1916  TIP3      H2             40.6144564810        9.4146567438       30.3502418360  SOLV      1953            0.0000000000
      5831      1917  TIP3      OH2            40.8349964810       13.2406867438       28.7031118360  SOLV      1954            0.0000000000
      5832      1917  TIP3      H1             40.4655164810       12.4387367438       28.3335418360  SOLV      1954            0.0000000000
      5833      1917  TIP3      H2             41.7761064810       13.0721767438       28.7494518360  SOLV      1954            0.0000000000
      5834      1918  TIP3      OH2            37.4450464810        6.9009467438       24.0959918360  SOLV      1955            0.0000000000
      5835      1918  TIP3      H1             36.9973864810        7.7468167438       24.0776418360  SOLV      1955            0.0000000000
      5836      1918  TIP3      H2             36.8841664810        6.3213667438       23.5805018360  SOLV      1955            0.0000000000
      5837      1919  TIP3      OH2            38.1556564810        9.0629067438       26.2217918360  SOLV      1956            0.0000000000
      5838      1919  TIP3      H1             38.3690064810        8.2930667438       26.7490918360  SOLV      1956            0.0000000000
      5839      1919  TIP3      H2             38.8934164810        9.1525767438       25.6185518360  SOLV      1956            0.0000000000
      5840      1920  TIP3      OH2            48.3607564810       17.2197967438       27.0887618360  SOLV      1957            0.0000000000
      5841      1920  TIP3      H1             48.9803964810       16.5432667438       26.8156818360  SOLV      1957            0.0000000000
      5842      1920  TIP3      H2             48.1524964810       17.0018767438       27.9972518360  SOLV      1957            0.0000000000
      5843      1921  TIP3      OH2            45.9326264810       11.6087267438       28.9813118360  SOLV      1958            0.0000000000
      5844      1921  TIP3      H1             46.2364164810       10.9228667438       28.3867218360  SOLV      1958            0.0000000000
      5845      1921  TIP3      H2             46.6540264810       11.7275967438       29.5991118360  SOLV      1958            0.0000000000
      5846      1922  TIP3      OH2            49.0733264810        6.0029667438       29.3087918360  SOLV      1959            0.0000000000
      5847      1922  TIP3      H1             49.2159164810        5.0566667438       29.3289518360  SOLV      1959            0.0000000000
      5848      1922  TIP3      H2             48.9672264810        6.2099467438       28.3802818360  SOLV      1959            0.0000000000
      5849      1923  TIP3      OH2            42.2281564810        4.1046067438       26.5812718360  SOLV      1960            0.0000000000
      5850      1923  TIP3      H1             42.2712664810        4.9644567438       26.1629018360  SOLV      1960            0.0000000000
      5851      1923  TIP3      H2             41.7705664810        3.5520767438       25.9475918360  SOLV      1960            0.0000000000
      5852      1924  TIP3      OH2            38.8483064810        6.5011867438       27.3434118360  SOLV      1961            0.0000000000
      5853      1924  TIP3      H1             39.5019664810        5.9513567438       27.7754218360  SOLV      1961            0.0000000000
      5854      1924  TIP3      H2             38.8722364810        6.2270867438       26.4266118360  SOLV      1961            0.0000000000
      5855      1925  TIP3      OH2            44.0047564810        8.0513167438       26.5585618360  SOLV      1962            0.0000000000
      5856      1925  TIP3      H1             44.6208564810        7.5248567438       27.0679618360  SOLV      1962            0.0000000000
      5857      1925  TIP3      H2             43.4186364810        7.4111867438       26.1549218360  SOLV      1962            0.0000000000
      5858      1926  TIP3      OH2            41.0383464810        3.0224467438       30.6553518360  SOLV      1963            0.0000000000
      5859      1926  TIP3      H1             40.8195164810        3.5525067438       29.8889518360  SOLV      1963            0.0000000000
      5860      1926  TIP3      H2             40.3704364810        3.2489967438       31.3024918360  SOLV      1963            0.0000000000
      5861      1927  TIP3      OH2            48.4073264810       12.5225567438       24.1992618360  SOLV      1964            0.0000000000
      5862      1927  TIP3      H1             48.1118364810       12.1997867438       23.3479518360  SOLV      1964            0.0000000000
      5863      1927  TIP3      H2             48.0831064810       13.4222267438       24.2405218360  SOLV      1964            0.0000000000
      5864      1928  TIP3      OH2            43.6074864810       10.6980167438       30.9427218360  SOLV      1965            0.0000000000
      5865      1928  TIP3      H1             42.8673964810       11.2961667438       31.0462418360  SOLV      1965            0.0000000000
      5866      1928  TIP3      H2             44.3214364810       11.2519767438       30.6270818360  SOLV      1965            0.0000000000
      5867      1929  TIP3      OH2            40.6320764810        4.9146267438       28.6075718360  SOLV      1966            0.0000000000
      5868      1929  TIP3      H1             41.2457064810        5.5473867438       28.9808118360  SOLV      1966            0.0000000000
      5869      1929  TIP3      H2             41.1441464810        4.4421267438       27.9512618360  SOLV      1966            0.0000000000
      5870      1930  TIP3      OH2            42.0149164810       12.6623167438       31.7298718360  SOLV      1967            0.0000000000
      5871      1930  TIP3      H1             42.0096764810       13.5416667438       31.3518018360  SOLV      1967            0.0000000000
      5872      1930  TIP3      H2             41.1613264810       12.5787267438       32.1548618360  SOLV      1967            0.0000000000
      5873      1931  TIP3      OH2            38.1360064810       12.3331067438       22.5118018360  SOLV      1968            0.0000000000
      5874      1931  TIP3      H1             37.8640964810       12.5622067438       21.6230918360  SOLV      1968            0.0000000000
      5875      1931  TIP3      H2             38.1815764810       13.1709867438       22.9723318360  SOLV      1968            0.0000000000
      5876      1932  TIP3      OH2            45.0648164810        0.3279567438       28.1078418360  SOLV      1969            0.0000000000
      5877      1932  TIP3      H1             44.9472364810       -0.6204432562       28.0536718360  SOLV      1969            0.0000000000
      5878      1932  TIP3      H2             44.2098264810        0.6605667438       28.3809518360  SOLV      1969            0.0000000000
      5879      1933  TIP3      OH2            47.3313064810        9.1655167438       22.6084218360  SOLV      1970            0.0000000000
      5880      1933  TIP3      H1             46.6198564810        9.7004867438       22.2564718360  SOLV      1970            0.0000000000
      5881      1933  TIP3      H2             48.0222664810        9.2207267438       21.9483118360  SOLV      1970            0.0000000000
      5882      1934  TIP3      OH2            47.3852264810        7.6229467438       19.6469218360  SOLV      1971            0.0000000000
      5883      1934  TIP3      H1             48.0862164810        7.6456367438       20.2983218360  SOLV      1971            0.0000000000
      5884      1934  TIP3      H2             47.6875164810        6.9949167438       18.9908518360  SOLV      1971            0.0000000000
      5885      1935  TIP3      OH2            42.3824464810       10.0054667438       25.4425118360  SOLV      1972            0.0000000000
      5886      1935  TIP3      H1             42.0519664810        9.6348067438       24.6242118360  SOLV      1972            0.0000000000
      5887      1935  TIP3      H2             42.9708564810        9.3348667438       25.7893418360  SOLV      1972            0.0000000000
      5888      1936  TIP3      OH2            43.7491964810       13.4335267438       28.1237318360  SOLV      1973            0.0000000000
      5889      1936  TIP3      H1             43.6543264810       12.8548367438       27.3671918360  SOLV      1973            0.0000000000
      5890      1936  TIP3      H2             44.4785564810       13.0620967438       28.6200118360  SOLV      1973            0.0000000000
      5891      1937  TIP3      OH2            42.7489964810        8.7740267438       29.0760118360  SOLV      1974            0.0000000000
      5892      1937  TIP3      H1             43.3142464810        8.8954467438       28.3131318360  SOLV      1974            0.0000000000
      5893      1937  TIP3      H2             43.0678864810        9.4115267438       29.7148618360  SOLV      1974            0.0000000000
      5894      1938  TIP3      OH2            49.0582164810       14.2772167438       29.8100618360  SOLV      1975            0.0000000000
      5895      1938  TIP3      H1             48.8178764810       14.9395267438       30.4579818360  SOLV      1975            0.0000000000
      5896      1938  TIP3      H2             48.8600364810       13.4427367438       30.2350218360  SOLV      1975            0.0000000000
      5897      1939  TIP3      OH2            43.6290664810       13.1732967438       33.7932018360  SOLV      1976            0.0000000000
      5898      1939  TIP3      H1             43.3178164810       13.9556167438       34.2485218360  SOLV      1976            0.0000000000
      5899      1939  TIP3      H2             42.9790864810       13.0202067438       33.1074018360  SOLV      1976            0.0000000000
      5900      1940  TIP3      OH2            49.6080264810        8.5371367438       21.2451318360  SOLV      1977            0.0000000000
      5901      1940  TIP3      H1             50.1875764810        8.6871667438       21.9920218360  SOLV      1977            0.0000000000
      5902      1940  TIP3      H2             50.0220264810        9.0078767438       20.5217718360  SOLV      1977            0.0000000000
      5903      1941  TIP3      OH2            40.5490564810        9.3714067438       33.0217718360  SOLV      1978            0.0000000000
      5904      1941  TIP3      H1             40.6193764810       10.0220867438       33.7202718360  SOLV      1978            0.0000000000
      5905      1941  TIP3      H2             39.6582764810        9.4741567438       32.6868618360  SOLV      1978            0.0000000000
      5906      1942  TIP3      OH2            47.3345164810       15.2739867438       24.6804418360  SOLV      1979            0.0000000000
      5907      1942  TIP3      H1             47.8082764810       15.5696167438       25.4578618360  SOLV      1979            0.0000000000
      5908      1942  TIP3      H2             46.7714464810       16.0121467438       24.4474018360  SOLV      1979            0.0000000000
      5909      1943  TIP3      OH2            41.8686564810       15.2447967438       34.5565818360  SOLV      1980            0.0000000000
      5910      1943  TIP3      H1             41.8761864810       15.1087667438       33.6091318360  SOLV      1980            0.0000000000
      5911      1943  TIP3      H2             40.9526964810       15.1276067438       34.8085818360  SOLV      1980            0.0000000000
      5912      1944  TIP3      OH2            41.3727164810        9.0748967438       23.0317918360  SOLV      1981            0.0000000000
      5913      1944  TIP3      H1             41.0808464810        9.8430667438       22.5409218360  SOLV      1981            0.0000000000
      5914      1944  TIP3      H2             40.6982364810        8.4155167438       22.8689318360  SOLV      1981            0.0000000000
      5915      1945  TIP3      OH2            37.4657264810       11.4378167438       31.8467718360  SOLV      1982            0.0000000000
      5916      1945  TIP3      H1             36.9645664810       11.4097567438       31.0317418360  SOLV      1982            0.0000000000
      5917      1945  TIP3      H2             37.4710964810       10.5321367438       32.1565018360  SOLV      1982            0.0000000000
      5918      1946  TIP3      OH2            37.2159964810       14.2181967438       28.7307918360  SOLV      1983            0.0000000000
      5919      1946  TIP3      H1             38.1620564810       14.0738967438       28.7117418360  SOLV      1983            0.0000000000
      5920      1946  TIP3      H2             37.1036264810       15.0024767438       29.2679118360  SOLV      1983            0.0000000000
      5921      1947  TIP3      OH2            46.3922464810       14.4580867438       33.2893018360  SOLV      1984            0.0000000000
      5922      1947  TIP3      H1             46.4797064810       15.2845467438       33.7642118360  SOLV      1984            0.0000000000
      5923      1947  TIP3      H2             45.5287564810       14.1284667438       33.5382318360  SOLV      1984            0.0000000000
      5924      1948  TIP3      OH2            46.8068264810       18.2304567438       23.0953618360  SOLV      1985            0.0000000000
      5925      1948  TIP3      H1             46.7314264810       18.1091767438       22.1488818360  SOLV      1985            0.0000000000
      5926      1948  TIP3      H2             46.8396964810       19.1797267438       23.2138218360  SOLV      1985            0.0000000000
      5927      1949  TIP3      OH2            40.4602064810       17.0191567438       24.8762618360  SOLV      1986            0.0000000000
      5928      1949  TIP3      H1             40.6122464810       16.6711967438       25.7549118360  SOLV      1986            0.0000000000
      5929      1949  TIP3      H2             39.6092464810       16.6628867438       24.6209818360  SOLV      1986            0.0000000000
      5930      1950  TIP3      OH2            49.5772364810       17.3101867438       22.8468218360  SOLV      1987            0.0000000000
      5931      1950  TIP3      H1             48.6422164810       17.4103767438       23.0255218360  SOLV      1987            0.0000000000
      5932      1950  TIP3      H2             49.8574264810       16.6007867438       23.4251418360  SOLV      1987            0.0000000000
      5933      1951  TIP3      OH2            39.7147764810       12.7613567438       32.8900518360  SOLV      1988            0.0000000000
      5934      1951  TIP3      H1             39.9309064810       12.3999167438       33.7496318360  SOLV      1988            0.0000000000
      5935      1951  TIP3      H2             38.8592464810       12.3867367438       32.6804018360  SOLV      1988            0.0000000000
      5936      1952  TIP3      OH2            42.3335764810        1.2314067438       28.8854718360  SOLV      1989            0.0000000000
      5937      1952  TIP3      H1             41.4719464810        1.1442267438       28.4777618360  SOLV      1989            0.0000000000
      5938      1952  TIP3      H2             42.3111464810        2.0874167438       29.3132318360  SOLV      1989            0.0000000000
      5939      1953  TIP3      OH2            46.9963564810        0.9534467438       32.2601718360  SOLV      1990            0.0000000000
      5940      1953  TIP3      H1             47.4166664810        0.5381567438       33.0132318360  SOLV      1990            0.0000000000
      5941      1953  TIP3      H2             46.0633164810        0.7747767438       32.3773718360  SOLV      1990            0.0000000000
      5942      1954  TIP3      OH2            46.6580864810        3.4457867438       19.5452518360  SOLV      1991            0.0000000000
      5943      1954  TIP3      H1             46.4045664810        3.4649467438       20.4680618360  SOLV      1991            0.0000000000
      5944      1954  TIP3      H2             46.4012964810        2.5743267438       19.2438718360  SOLV      1991            0.0000000000
      5945      1955  TIP3      OH2            42.4245864810        6.1968567438       29.9804918360  SOLV      1992            0.0000000000
      5946      1955  TIP3      H1             41.7827964810        6.1565867438       30.6895018360  SOLV      1992            0.0000000000
      5947      1955  TIP3      H2             42.4617864810        7.1233267438       29.7427918360  SOLV      1992            0.0000000000
      5948      1956  TIP3      OH2            42.4214964810        6.4178667438       24.8924918360  SOLV      1993            0.0000000000
      5949      1956  TIP3      H1             41.5287864810        6.0774767438       24.8338718360  SOLV      1993            0.0000000000
      5950      1956  TIP3      H2             42.8721564810        6.0409567438       24.1368118360  SOLV      1993            0.0000000000
      5951      1957  TIP3      OH2            47.9570464810        6.8338967438       23.7095718360  SOLV      1994            0.0000000000
      5952      1957  TIP3      H1             47.5480764810        7.6487567438       23.4180518360  SOLV      1994            0.0000000000
      5953      1957  TIP3      H2             48.6776664810        6.6939067438       23.0952818360  SOLV      1994            0.0000000000
      5954      1958  TIP3      OH2            47.0592064810        7.0095367438       35.1976418360  SOLV      1995            0.0000000000
      5955      1958  TIP3      H1             46.4965864810        6.3046967438       35.5184218360  SOLV      1995            0.0000000000
      5956      1958  TIP3      H2             47.8855464810        6.8887267438       35.6654018360  SOLV      1995            0.0000000000
      5957      1959  TIP3      OH2            48.9618164810        6.2799367438       26.5235418360  SOLV      1996            0.0000000000
      5958      1959  TIP3      H1             48.7662664810        6.8856167438       25.8086018360  SOLV      1996            0.0000000000
      5959      1959  TIP3      H2             49.1430764810        5.4464567438       26.0891718360  SOLV      1996            0.0000000000
      5960      1960  TIP3      OH2            40.1746364810        6.5172067438       31.8476918360  SOLV      1997            0.0000000000
      5961      1960  TIP3      H1             40.1365764810        6.9173667438       32.7164018360  SOLV      1997            0.0000000000
      5962      1960  TIP3      H2             39.6837464810        5.7004467438       31.9379818360  SOLV      1997            0.0000000000
      5963      1961  TIP3      OH2            43.5403764810        3.8914367438       18.6462918360  SOLV      1998            0.0000000000
      5964      1961  TIP3      H1             43.1094464810        3.4464467438       19.3760318360  SOLV      1998            0.0000000000
      5965      1961  TIP3      H2             42.8222464810        4.2630667438       18.1340418360  SOLV      1998            0.0000000000
      5966      1962  TIP3      OH2            36.7827164810        3.6333867438       25.6981618360  SOLV      1999            0.0000000000
      5967      1962  TIP3      H1             37.4134864810        3.6045967438       26.4175518360  SOLV      1999            0.0000000000
      5968      1962  TIP3      H2             37.2321464810        3.2082567438       24.9677518360  SOLV      1999            0.0000000000
      5969      1963  TIP3      OH2            38.0569264810        4.3795867438       21.1222018360  SOLV      2000            0.0000000000
      5970      1963  TIP3      H1             38.5310964810        4.9705767438       20.5372918360  SOLV      2000            0.0000000000
      5971      1963  TIP3      H2             37.3395664810        4.9098767438       21.4692118360  SOLV      2000            0.0000000000
      5972      1964  TIP3      OH2            48.2257364810        7.9180667438       31.1947818360  SOLV      2001            0.0000000000
      5973      1964  TIP3      H1             48.5492164810        7.2870367438       30.5518318360  SOLV      2001            0.0000000000
      5974      1964  TIP3      H2             47.7856664810        7.3832867438       31.8555218360  SOLV      2001            0.0000000000
      5975      1965  TIP3      OH2            45.0030264810        3.8456167438       25.9789018360  SOLV      2002            0.0000000000
      5976      1965  TIP3      H1             44.0921364810        3.9022967438       26.2675018360  SOLV      2002            0.0000000000
      5977      1965  TIP3      H2             45.5083164810        3.7851667438       26.7896218360  SOLV      2002            0.0000000000
      5978      1966  TIP3      OH2            39.8313664810        5.4742467438       24.8056618360  SOLV      2003            0.0000000000
      5979      1966  TIP3      H1             38.9421664810        5.5737967438       24.4656218360  SOLV      2003            0.0000000000
      5980      1966  TIP3      H2             40.1278564810        4.6325467438       24.4594518360  SOLV      2003            0.0000000000
      5981      1967  TIP3      OH2            43.4845464810        5.4745067438       22.4621218360  SOLV      2004            0.0000000000
      5982      1967  TIP3      H1             44.4160964810        5.6035067438       22.6404318360  SOLV      2004            0.0000000000
      5983      1967  TIP3      H2             43.2695764810        6.1439367438       21.8125918360  SOLV      2004            0.0000000000
      5984      1968  TIP3      OH2            49.4082164810        3.0802467438       29.2430818360  SOLV      2005            0.0000000000
      5985      1968  TIP3      H1             48.7313764810        3.2115567438       29.9070518360  SOLV      2005            0.0000000000
      5986      1968  TIP3      H2             48.9227064810        2.9251967438       28.4328518360  SOLV      2005            0.0000000000
      5987      1969  TIP3      OH2            42.1585664810        6.6687267438       20.0287318360  SOLV      2006            0.0000000000
      5988      1969  TIP3      H1             41.6160764810        6.2891067438       19.3374918360  SOLV      2006            0.0000000000
      5989      1969  TIP3      H2             42.9920564810        6.8631967438       19.6001418360  SOLV      2006            0.0000000000
      5990      1970  TIP3      OH2            40.2937064810       11.2259167438       35.1278918360  SOLV      2007            0.0000000000
      5991      1970  TIP3      H1             41.0259464810       11.4805067438       35.6893418360  SOLV      2007            0.0000000000
      5992      1970  TIP3      H2             39.5135764810       11.4304567438       35.6434318360  SOLV      2007            0.0000000000
      5993      1971  TIP3      OH2            46.3229964810        6.6329167438       27.8658618360  SOLV      2008            0.0000000000
      5994      1971  TIP3      H1             46.8873364810        6.0865767438       27.3188218360  SOLV      2008            0.0000000000
      5995      1971  TIP3      H2             46.1753364810        6.1111067438       28.6546218360  SOLV      2008            0.0000000000
      5996      1972  TIP3      OH2            41.3249664810        2.7695267438       24.2843418360  SOLV      2009            0.0000000000
      5997      1972  TIP3      H1             41.0079164810        1.8670567438       24.2488818360  SOLV      2009            0.0000000000
      5998      1972  TIP3      H2             42.1063764810        2.7712667438       23.7315018360  SOLV      2009            0.0000000000
      5999      1973  TIP3      OH2            44.9495864810        5.0215267438       30.2799018360  SOLV      2010            0.0000000000
      6000      1973  TIP3      H1             44.1141164810        5.4754767438       30.3901418360  SOLV      2010            0.0000000000
      6001      1973  TIP3      H2             45.4736464810        5.2973767438       31.0318918360  SOLV      2010            0.0000000000
      6002      1974  TIP3      OH2            45.4938464810       11.2342967438       21.9645418360  SOLV      2011            0.0000000000
      6003      1974  TIP3      H1             44.7489464810       10.7268267438       21.6423318360  SOLV      2011            0.0000000000
      6004      1974  TIP3      H2             45.3595664810       11.2830967438       22.9110218360  SOLV      2011            0.0000000000
      6005      1975  TIP3      OH2            49.3915264810        4.0482867438       20.1638018360  SOLV      2012            0.0000000000
      6006      1975  TIP3      H1             48.4529464810        4.1598467438       20.0126818360  SOLV      2012            0.0000000000
      6007      1975  TIP3      H2             49.6887364810        4.9049767438       20.4703718360  SOLV      2012            0.0000000000
      6008      1976  TIP3      OH2            47.0130564810       11.4186267438       33.2014518360  SOLV      2013            0.0000000000
      6009      1976  TIP3      H1             46.6676664810       11.0368667438       34.0084118360  SOLV      2013            0.0000000000
      6010      1976  TIP3      H2             46.8130664810       12.3519867438       33.2727418360  SOLV      2013            0.0000000000
      6011      1977  TIP3      OH2            40.6186764810       10.5292967438       27.7343318360  SOLV      2014            0.0000000000
      6012      1977  TIP3      H1             41.3633964810       10.5268667438       27.1329818360  SOLV      2014            0.0000000000
      6013      1977  TIP3      H2             40.6963364810        9.7056767438       28.2158418360  SOLV      2014            0.0000000000
      6014      1978  TIP3      OH2            47.6192564810       12.6927267438       20.9900018360  SOLV      2015            0.0000000000
      6015      1978  TIP3      H1             47.3240964810       13.5195167438       21.3714818360  SOLV      2015            0.0000000000
      6016      1978  TIP3      H2             46.9162564810       12.0734167438       21.1861418360  SOLV      2015            0.0000000000
      6017      1979  TIP3      OH2            37.6266464810        8.9899867438       33.0491818360  SOLV      2016            0.0000000000
      6018      1979  TIP3      H1             37.8495064810        8.5719467438       33.8809318360  SOLV      2016            0.0000000000
      6019      1979  TIP3      H2             37.0246564810        8.3774867438       32.6264618360  SOLV      2016            0.0000000000
      6020      1980  TIP3      OH2            44.6431364810        8.5069767438       35.2621518360  SOLV      2017            0.0000000000
      6021      1980  TIP3      H1             44.3472164810        8.3412767438       34.3670618360  SOLV      2017            0.0000000000
      6022      1980  TIP3      H2             45.5746564810        8.2870067438       35.2515418360  SOLV      2017            0.0000000000
      6023      1981  TIP3      OH2            49.2634164810       13.8801767438       33.1519518360  SOLV      2018            0.0000000000
      6024      1981  TIP3      H1             48.3628464810       14.0634367438       32.8843418360  SOLV      2018            0.0000000000
      6025      1981  TIP3      H2             49.2975264810       14.1391067438       34.0728318360  SOLV      2018            0.0000000000
      6026      1982  TIP3      OH2            42.9936164810       14.0471167438       25.1384818360  SOLV      2019            0.0000000000
      6027      1982  TIP3      H1             43.5208364810       14.8205567438       24.9383618360  SOLV      2019            0.0000000000
      6028      1982  TIP3      H2             42.1134664810       14.2720367438       24.8368818360  SOLV      2019            0.0000000000
      6029      1983  TIP3      OH2            38.7483864810        8.9095267438       19.7257218360  SOLV      2020            0.0000000000
      6030      1983  TIP3      H1             39.3643764810        9.5362467438       20.1052018360  SOLV      2020            0.0000000000
      6031      1983  TIP3      H2             37.8866464810        9.2255067438       19.9973718360  SOLV      2020            0.0000000000
      6032      1984  TIP3      OH2            44.4208464810       11.7101067438       24.7149118360  SOLV      2021            0.0000000000
      6033      1984  TIP3      H1             44.1798464810       12.6355467438       24.7564418360  SOLV      2021            0.0000000000
      6034      1984  TIP3      H2             43.6802064810       11.2512367438       25.1113018360  SOLV      2021            0.0000000000
      6035      1985  TIP3      OH2            44.9355064810       15.8594667438       31.0300218360  SOLV      2022            0.0000000000
      6036      1985  TIP3      H1             45.2979764810       16.7140267438       30.7964618360  SOLV      2022            0.0000000000
      6037      1985  TIP3      H2             45.4670264810       15.5676267438       31.7706518360  SOLV      2022            0.0000000000
      6038      1986  TIP3      OH2            43.1039264810       16.7318667438       24.2601318360  SOLV      2023            0.0000000000
      6039      1986  TIP3      H1             42.1539764810       16.8376067438       24.3114618360  SOLV      2023            0.0000000000
      6040      1986  TIP3      H2             43.4557364810       17.5526067438       24.6048818360  SOLV      2023            0.0000000000
      6041      1987  TIP3      OH2            48.4795864810       11.9585367438       30.7305818360  SOLV      2024            0.0000000000
      6042      1987  TIP3      H1             48.0537164810       11.7307067438       31.5569818360  SOLV      2024            0.0000000000
      6043      1987  TIP3      H2             49.0601664810       11.2197167438       30.5481118360  SOLV      2024            0.0000000000
      6044      1988  TIP3      OH2            39.2605964810        3.7432567438       32.6073218360  SOLV      2025            0.0000000000
      6045      1988  TIP3      H1             38.3678264810        4.0817967438       32.5397218360  SOLV      2025            0.0000000000
      6046      1988  TIP3      H2             39.1618764810        2.8878667438       33.0254018360  SOLV      2025            0.0000000000
      6047      1989  TIP3      OH2            38.9117964810       15.5476967438       31.0422618360  SOLV      2026            0.0000000000
      6048      1989  TIP3      H1             39.1288264810       14.6159367438       31.0112318360  SOLV      2026            0.0000000000
      6049      1989  TIP3      H2             39.1581464810       15.8221967438       31.9255418360  SOLV      2026            0.0000000000
      6050      1990  TIP3      OH2            44.7732564810       13.9991967438       18.2514818360  SOLV      2027            0.0000000000
      6051      1990  TIP3      H1             45.0122364810       13.2510067438       17.7043718360  SOLV      2027            0.0000000000
      6052      1990  TIP3      H2             44.5043864810       13.6113667438       19.0842618360  SOLV      2027            0.0000000000
      6053      1991  TIP3      OH2            43.7103164810       13.5695767438       20.7077418360  SOLV      2028            0.0000000000
      6054      1991  TIP3      H1             43.8571164810       13.0495567438       21.4978318360  SOLV      2028            0.0000000000
      6055      1991  TIP3      H2             43.7074864810       14.4763367438       21.0143318360  SOLV      2028            0.0000000000
      6056      1992  TIP3      OH2            40.1634264810       10.8219067438       21.2182818360  SOLV      2029            0.0000000000
      6057      1992  TIP3      H1             39.4773564810       11.1741567438       21.7852518360  SOLV      2029            0.0000000000
      6058      1992  TIP3      H2             40.6862164810       11.5848667438       20.9717118360  SOLV      2029            0.0000000000
      6059      1993  TIP3      OH2            47.9949364810        3.4842867438       31.4971818360  SOLV      2030            0.0000000000
      6060      1993  TIP3      H1             48.6937264810        3.5581567438       32.1471518360  SOLV      2030            0.0000000000
      6061      1993  TIP3      H2             47.6140764810        2.6197867438       31.6514718360  SOLV      2030            0.0000000000
      6062      1994  TIP3      OH2            48.7794264810        3.1364567438       22.5944118360  SOLV      2031            0.0000000000
      6063      1994  TIP3      H1             48.9992564810        3.6079967438       21.7909518360  SOLV      2031            0.0000000000
      6064      1994  TIP3      H2             49.3378264810        3.5307167438       23.2644718360  SOLV      2031            0.0000000000
      6065      1995  TIP3      OH2            46.4480364810       15.2669367438       21.4571618360  SOLV      2032            0.0000000000
      6066      1995  TIP3      H1             45.6316464810       15.7639067438       21.5095918360  SOLV      2032            0.0000000000
      6067      1995  TIP3      H2             46.9776664810       15.7422867438       20.8170418360  SOLV      2032            0.0000000000
      6068      1996  TIP3      OH2            45.9794164810        4.8643367438       23.4292518360  SOLV      2033            0.0000000000
      6069      1996  TIP3      H1             46.7916764810        5.3686567438       23.4754218360  SOLV      2033            0.0000000000
      6070      1996  TIP3      H2             45.7347164810        4.7193067438       24.3432118360  SOLV      2033            0.0000000000
      6071      1997  TIP3      OH2            46.5150564810        5.8506067438       32.6139118360  SOLV      2034            0.0000000000
      6072      1997  TIP3      H1             46.6340864810        6.4241467438       33.3709518360  SOLV      2034            0.0000000000
      6073      1997  TIP3      H2             47.1705164810        5.1625467438       32.7286918360  SOLV      2034            0.0000000000
      6074      1998  TIP3      OH2            46.8630864810        1.9456367438       24.3673618360  SOLV      2035            0.0000000000
      6075      1998  TIP3      H1             46.5164364810        2.5626967438       25.0117918360  SOLV      2035            0.0000000000
      6076      1998  TIP3      H2             47.5217764810        2.4462067438       23.8859118360  SOLV      2035            0.0000000000
      6077      1999  TIP3      OH2            43.7863464810       16.3106567438       21.4388518360  SOLV      2036            0.0000000000
      6078      1999  TIP3      H1             43.9472164810       17.1104067438       20.9381118360  SOLV      2036            0.0000000000
      6079      1999  TIP3      H2             43.5891264810       16.6172567438       22.3239118360  SOLV      2036            0.0000000000
      6080      2000  TIP3      OH2            42.5207864810        3.0085767438       21.0546118360  SOLV      2037            0.0000000000
      6081      2000  TIP3      H1             42.4372664810        3.8968867438       21.4012518360  SOLV      2037            0.0000000000
      6082      2000  TIP3      H2             43.4108164810        2.7432467438       21.2862918360  SOLV      2037            0.0000000000
      6083      2001  TIP3      OH2            40.7793164810       13.4357967438       20.1150618360  SOLV      2038            0.0000000000
      6084      2001  TIP3      H1             41.3714664810       14.1352767438       20.3913018360  SOLV      2038            0.0000000000
      6085      2001  TIP3      H2             41.2386164810       13.0027467438       19.3955218360  SOLV      2038            0.0000000000
      6086      2002  TIP3      OH2            39.0952364810        6.1000967438       19.2310018360  SOLV      2039            0.0000000000
      6087      2002  TIP3      H1             39.0504964810        7.0394067438       19.4097018360  SOLV      2039            0.0000000000
      6088      2002  TIP3      H2             38.2075564810        5.8645867438       18.9612118360  SOLV      2039            0.0000000000
      6089      2003  TIP3      OH2            39.9034364810        0.8817567438       27.9041018360  SOLV      2040            0.0000000000
      6090      2003  TIP3      H1             39.6744164810        0.9410067438       26.9766018360  SOLV      2040            0.0000000000
      6091      2003  TIP3      H2             39.4607764810        0.0903067438       28.2105118360  SOLV      2040            0.0000000000
      6092      2004  TIP3      OH2            38.8337664810       14.8224667438       24.0646818360  SOLV      2041            0.0000000000
      6093      2004  TIP3      H1             38.0016264810       15.2947367438       24.0918218360  SOLV      2041            0.0000000000
      6094      2004  TIP3      H2             39.3795964810       15.3322267438       23.4659918360  SOLV      2041            0.0000000000
      6095      2005  TIP3      OH2            38.1221364810       17.4348367438       35.3944818360  SOLV      2042            0.0000000000
      6096      2005  TIP3      H1             38.6623564810       17.2182367438       36.1544018360  SOLV      2042            0.0000000000
      6097      2005  TIP3      H2             37.6409364810       16.6294367438       35.2047318360  SOLV      2042            0.0000000000
      6098      2006  TIP3      OH2            42.7194764810       16.3542767438       37.0149018360  SOLV      2043            0.0000000000
      6099      2006  TIP3      H1             43.4871964810       15.8953567438       37.3558218360  SOLV      2043            0.0000000000
      6100      2006  TIP3      H2             42.6980964810       16.1282567438       36.0850218360  SOLV      2043            0.0000000000
      6101      2007  TIP3      OH2            46.8114364810       15.8623367438       18.3900818360  SOLV      2044            0.0000000000
      6102      2007  TIP3      H1             46.1675364810       15.2311967438       18.7114518360  SOLV      2044            0.0000000000
      6103      2007  TIP3      H2             47.5732664810       15.3311367438       18.1584318360  SOLV      2044            0.0000000000
      6104      2008  TIP3      OH2            49.2963464810       14.7343867438       35.7440518360  SOLV      2045            0.0000000000
      6105      2008  TIP3      H1             48.9452964810       13.8776867438       35.9870918360  SOLV      2045            0.0000000000
      6106      2008  TIP3      H2             50.0226664810       14.8770567438       36.3509518360  SOLV      2045            0.0000000000
      6107      2009  TIP3      OH2            38.0290864810       11.2452467438       36.3489118360  SOLV      2046            0.0000000000
      6108      2009  TIP3      H1             38.1731364810       10.3433167438       36.0625818360  SOLV      2046            0.0000000000
      6109      2009  TIP3      H2             37.2568264810       11.5314567438       35.8611418360  SOLV      2046            0.0000000000
      6110      2010  TIP3      OH2            42.3704564810       11.5888167438       18.4813718360  SOLV      2047            0.0000000000
      6111      2010  TIP3      H1             42.4348664810       10.7947767438       19.0120118360  SOLV      2047            0.0000000000
      6112      2010  TIP3      H2             43.0233764810       11.4700967438       17.7915718360  SOLV      2047            0.0000000000
      6113      2011  TIP3      OH2            44.6846964810       11.2150567438       35.7815518360  SOLV      2048            0.0000000000
      6114      2011  TIP3      H1             44.3560764810       11.4858667438       34.9242918360  SOLV      2048            0.0000000000
      6115      2011  TIP3      H2             44.8365164810       10.2740367438       35.6940518360  SOLV      2048            0.0000000000
      6116      2012  TIP3      OH2            47.7227964810       12.6359867438       18.2171718360  SOLV      2049            0.0000000000
      6117      2012  TIP3      H1             47.4542064810       12.8161967438       19.1180618360  SOLV      2049            0.0000000000
      6118      2012  TIP3      H2             47.5163564810       11.7106067438       18.0857518360  SOLV      2049            0.0000000000
      6119      2013  TIP3      OH2            38.8617364810        8.4455767438       35.7688418360  SOLV      2050            0.0000000000
      6120      2013  TIP3      H1             39.2698564810        7.5882367438       35.6479018360  SOLV      2050            0.0000000000
      6121      2013  TIP3      H2             38.6014964810        8.4597067438       36.6898718360  SOLV      2050            0.0000000000
      6122      2014  TIP3      OH2            43.5198364810        9.5614367438       20.7871718360  SOLV      2051            0.0000000000
      6123      2014  TIP3      H1             43.0600364810        9.0772667438       21.4730218360  SOLV      2051            0.0000000000
      6124      2014  TIP3      H2             43.7747064810        8.8929767438       20.1512218360  SOLV      2051            0.0000000000
      6125      2015  TIP3      OH2            42.8087664810        7.4541467438       33.1431318360  SOLV      2052            0.0000000000
      6126      2015  TIP3      H1             42.1903764810        8.1288067438       33.4236018360  SOLV      2052            0.0000000000
      6127      2015  TIP3      H2             43.1528864810        7.7755367438       32.3097518360  SOLV      2052            0.0000000000
      6128      2016  TIP3      OH2            44.5908764810        7.8046167438       19.0494918360  SOLV      2053            0.0000000000
      6129      2016  TIP3      H1             44.4103764810        7.6497367438       18.1223218360  SOLV      2053            0.0000000000
      6130      2016  TIP3      H2             45.5409264810        7.9124867438       19.0942818360  SOLV      2053            0.0000000000
      6131      2017  TIP3      OH2            47.8285864810        9.9256767438       36.4206118360  SOLV      2054            0.0000000000
      6132      2017  TIP3      H1             48.7817064810       10.0095867438       36.3932118360  SOLV      2054            0.0000000000
      6133      2017  TIP3      H2             47.6680464810        9.2138567438       37.0401018360  SOLV      2054            0.0000000000
      6134      2018  TIP3      OH2            43.1481364810        4.8092267438       34.2254418360  SOLV      2055            0.0000000000
      6135      2018  TIP3      H1             43.2982264810        4.0803567438       33.6234118360  SOLV      2055            0.0000000000
      6136      2018  TIP3      H2             43.1503764810        5.5863967438       33.6666618360  SOLV      2055            0.0000000000
      6137      2019  TIP3      OH2            43.5607064810        3.1788067438       31.7181818360  SOLV      2056            0.0000000000
      6138      2019  TIP3      H1             44.0964564810        3.6304767438       31.0661118360  SOLV      2056            0.0000000000
      6139      2019  TIP3      H2             42.7086664810        3.0707867438       31.2955918360  SOLV      2056            0.0000000000
      6140      2020  TIP3      OH2            45.1425464810        8.6184267438       31.9577018360  SOLV      2057            0.0000000000
      6141      2020  TIP3      H1             45.8930264810        8.4621767438       31.3844818360  SOLV      2057            0.0000000000
      6142      2020  TIP3      H2             44.8033764810        9.4700867438       31.6822518360  SOLV      2057            0.0000000000
      6143      2021  TIP3      OH2            49.5581664810        6.4336067438       36.9862318360  SOLV      2058            0.0000000000
      6144      2021  TIP3      H1             49.7502964810        5.5025467438       36.8746818360  SOLV      2058            0.0000000000
      6145      2021  TIP3      H2             50.4157964810        6.8585567438       36.9757718360  SOLV      2058            0.0000000000
      6146      2022  TIP3      OH2            41.6267664810        6.0075767438       36.1370018360  SOLV      2059            0.0000000000
      6147      2022  TIP3      H1             40.8596664810        5.4750567438       35.9267618360  SOLV      2059            0.0000000000
      6148      2022  TIP3      H2             42.3056664810        5.6976167438       35.5376318360  SOLV      2059            0.0000000000
      6149      2023  TIP3      OH2            44.3662564810        0.6353767438       32.1495418360  SOLV      2060            0.0000000000
      6150      2023  TIP3      H1             44.2682164810        1.5816967438       32.0441618360  SOLV      2060            0.0000000000
      6151      2023  TIP3      H2             43.6238764810        0.2627567438       31.6738918360  SOLV      2060            0.0000000000
      6152      2024  TIP3      OH2            45.6303064810        4.9569167438       35.7133818360  SOLV      2061            0.0000000000
      6153      2024  TIP3      H1             45.3948464810        4.7375867438       36.6148718360  SOLV      2061            0.0000000000
      6154      2024  TIP3      H2             44.8469964810        4.7500367438       35.2036318360  SOLV      2061            0.0000000000
      6155      2025  TIP3      OH2            48.3459664810        4.0842667438       34.7887318360  SOLV      2062            0.0000000000
      6156      2025  TIP3      H1             47.3985064810        4.1162367438       34.9210618360  SOLV      2062            0.0000000000
      6157      2025  TIP3      H2             48.6586364810        3.4589767438       35.4425518360  SOLV      2062            0.0000000000
      6158      2026  TIP3      OH2            49.9801164810        2.7183767438       36.7939218360  SOLV      2063            0.0000000000
      6159      2026  TIP3      H1             49.8832964810        1.7661067438       36.7881118360  SOLV      2063            0.0000000000
      6160      2026  TIP3      H2             49.6584264810        2.9870567438       37.6544718360  SOLV      2063            0.0000000000
      6161      2027  TIP3      OH2            39.8070464810        3.9279567438       35.8414718360  SOLV      2064            0.0000000000
      6162      2027  TIP3      H1             40.0187864810        3.2215667438       35.2312218360  SOLV      2064            0.0000000000
      6163      2027  TIP3      H2             39.6957964810        3.4905567438       36.6855918360  SOLV      2064            0.0000000000
      6164      2028  TIP3      OH2            44.9418164810        1.6119567438       36.8744518360  SOLV      2065            0.0000000000
      6165      2028  TIP3      H1             44.8100364810        1.1363367438       36.0543018360  SOLV      2065            0.0000000000
      6166      2028  TIP3      H2             44.3425564810        2.3563167438       36.8191618360  SOLV      2065            0.0000000000
      6167      2029  TIP3      OH2            44.4880464810       18.4949867438       20.0508518360  SOLV      2066            0.0000000000
      6168      2029  TIP3      H1             45.4211164810       18.6528567438       20.1946918360  SOLV      2066            0.0000000000
      6169      2029  TIP3      H2             44.2239264810       19.1702867438       19.4260018360  SOLV      2066            0.0000000000
      6170      2030  TIP3      OH2            38.0565364810       13.1313667438       19.5336618360  SOLV      2067            0.0000000000
      6171      2030  TIP3      H1             38.9704564810       13.2102567438       19.8070518360  SOLV      2067            0.0000000000
      6172      2030  TIP3      H2             38.0638464810       12.4443267438       18.8672218360  SOLV      2067            0.0000000000
      6173      2031  TIP3      OH2            36.7055964810       18.5242167438       24.6110518360  SOLV      2068            0.0000000000
      6174      2031  TIP3      H1             36.0583064810       18.0623867438       24.0781718360  SOLV      2068            0.0000000000
      6175      2031  TIP3      H2             37.0600564810       17.8525467438       25.1936718360  SOLV      2068            0.0000000000
      6176      2032  TIP3      OH2            37.5755164810       16.6049167438       26.4156718360  SOLV      2069            0.0000000000
      6177      2032  TIP3      H1             37.2411964810       15.7246467438       26.5876918360  SOLV      2069            0.0000000000
      6178      2032  TIP3      H2             37.7977564810       16.9504167438       27.2802318360  SOLV      2069            0.0000000000
      6179      2033  TIP3      OH2            37.6554664810        9.6804567438       28.8671618360  SOLV      2070            0.0000000000
      6180      2033  TIP3      H1             37.8397564810        9.5986267438       27.9314518360  SOLV      2070            0.0000000000
      6181      2033  TIP3      H2             38.5047564810        9.5561567438       29.2908018360  SOLV      2070            0.0000000000
      6182      2034  TIP3      OH2            37.2529464810        4.9509567438       35.0080418360  SOLV      2071            0.0000000000
      6183      2034  TIP3      H1             38.1724364810        4.8287867438       35.2443518360  SOLV      2071            0.0000000000
      6184      2034  TIP3      H2             36.8033964810        4.2009267438       35.3973918360  SOLV      2071            0.0000000000
      6185      2035  TIP3      OH2            38.4741964810        3.2631167438       27.8993318360  SOLV      2072            0.0000000000
      6186      2035  TIP3      H1             38.9193564810        2.4713667438       28.2013018360  SOLV      2072            0.0000000000
      6187      2035  TIP3      H2             38.9404964810        3.9796367438       28.3298918360  SOLV      2072            0.0000000000
      6188      2036  TIP3      OH2            36.7782264810        6.2624167438       28.9683518360  SOLV      2073            0.0000000000
      6189      2036  TIP3      H1             37.2702064810        6.0414667438       28.1775518360  SOLV      2073            0.0000000000
      6190      2036  TIP3      H2             37.1403164810        7.1027567438       29.2493018360  SOLV      2073            0.0000000000
      6191      2037  TIP3      OH2            37.0918764810        2.5203267438       23.0225918360  SOLV      2074            0.0000000000
      6192      2037  TIP3      H1             36.1667164810        2.7289867438       22.8931418360  SOLV      2074            0.0000000000
      6193      2037  TIP3      H2             37.5458664810        3.0044067438       22.3328218360  SOLV      2074            0.0000000000
      6194      2038  TIP3      OH2            37.0554164810        1.2582267438       31.3668418360  SOLV      2075            0.0000000000
      6195      2038  TIP3      H1             36.3904664810        1.0122567438       32.0099318360  SOLV      2075            0.0000000000
      6196      2038  TIP3      H2             36.6125464810        1.8802667438       30.7896418360  SOLV      2075            0.0000000000
      6197      2039  TIP3      OH2            39.2473464810       14.4336367438       35.5114218360  SOLV      2076            0.0000000000
      6198      2039  TIP3      H1             38.4265964810       14.6082867438       35.0508918360  SOLV      2076            0.0000000000
      6199      2039  TIP3      H2             38.9951264810       14.3601067438       36.4318618360  SOLV      2076            0.0000000000
      6200      2040  TIP3      OH2            42.2016364810       15.4077567438       31.7698218360  SOLV      2077            0.0000000000
      6201      2040  TIP3      H1             41.7767464810       16.2176067438       31.4872818360  SOLV      2077            0.0000000000
      6202      2040  TIP3      H2             43.1059164810       15.4931667438       31.4678018360  SOLV      2077            0.0000000000
      6203      2041  TIP3      OH2            46.5127764810       16.8067567438       34.7291918360  SOLV      2078            0.0000000000
      6204      2041  TIP3      H1             46.6975264810       16.4733667438       35.6072218360  SOLV      2078            0.0000000000
      6205      2041  TIP3      H2             47.3592264810       17.1166167438       34.4071118360  SOLV      2078            0.0000000000
      6206      2042  TIP3      OH2            48.8578164810       18.0926467438       33.9733318360  SOLV      2079            0.0000000000
      6207      2042  TIP3      H1             49.5347064810       17.4598767438       33.7332518360  SOLV      2079            0.0000000000
      6208      2042  TIP3      H2             49.1796964810       18.4936967438       34.7806618360  SOLV      2079            0.0000000000
      6209      2043  TIP3      OH2            39.6033064810       18.6641467438       31.8173518360  SOLV      2080            0.0000000000
      6210      2043  TIP3      H1             38.8829464810       19.1042467438       31.3661218360  SOLV      2080            0.0000000000
      6211      2043  TIP3      H2             39.2377064810       18.4136167438       32.6657518360  SOLV      2080            0.0000000000
      6212      2044  TIP3      OH2            42.0705664810       18.2645367438       30.8470718360  SOLV      2081            0.0000000000
      6213      2044  TIP3      H1             41.2057864810       18.3363867438       31.2510818360  SOLV      2081            0.0000000000
      6214      2044  TIP3      H2             42.0154664810       18.8112667438       30.0633218360  SOLV      2081            0.0000000000
      6215      2045  TIP3      OH2            46.7811264810       18.1524267438       30.0226718360  SOLV      2082            0.0000000000
      6216      2045  TIP3      H1             46.3245264810       18.6813967438       29.3685118360  SOLV      2082            0.0000000000
      6217      2045  TIP3      H2             46.9439264810       18.7555667438       30.7479018360  SOLV      2082            0.0000000000
      6218      2046  TIP3      OH2            49.1087564810       17.0303867438       30.9677018360  SOLV      2083            0.0000000000
      6219      2046  TIP3      H1             48.2041264810       17.1954067438       30.7019118360  SOLV      2083            0.0000000000
      6220      2046  TIP3      H2             49.5376164810       17.8836067438       30.9020418360  SOLV      2083            0.0000000000
      6221      2047  TIP3      OH2            39.0181164810       17.2873967438       28.7275318360  SOLV      2084            0.0000000000
      6222      2047  TIP3      H1             38.9997164810       16.8619067438       29.5847618360  SOLV      2084            0.0000000000
      6223      2047  TIP3      H2             39.8229064810       16.9688967438       28.3187518360  SOLV      2084            0.0000000000
      6224      2048  TIP3      OH2            41.1594264810       15.9972667438       27.3825218360  SOLV      2085            0.0000000000
      6225      2048  TIP3      H1             40.9404964810       15.0810067438       27.5521218360  SOLV      2085            0.0000000000
      6226      2048  TIP3      H2             41.9836464810       16.1373067438       27.8486618360  SOLV      2085            0.0000000000
      6227      2049  TIP3      OH2            43.6966764810       16.4671967438       28.2313218360  SOLV      2086            0.0000000000
      6228      2049  TIP3      H1             43.9092464810       15.5790967438       27.9444118360  SOLV      2086            0.0000000000
      6229      2049  TIP3      H2             43.7611864810       16.4329667438       29.1857218360  SOLV      2086            0.0000000000
      6230      2050  TIP3      OH2            47.2050464810        2.1312567438       27.3756518360  SOLV      2087            0.0000000000
      6231      2050  TIP3      H1             46.5307264810        1.5018167438       27.6312318360  SOLV      2087            0.0000000000
      6232      2050  TIP3      H2             47.7689664810        1.6471467438       26.7724418360  SOLV      2087            0.0000000000
      6233      2051  TIP3      OH2            39.5317964810        0.7652867438       25.1976418360  SOLV      2088            0.0000000000
      6234      2051  TIP3      H1             38.7547764810        0.5307767438       24.6902318360  SOLV      2088            0.0000000000
      6235      2051  TIP3      H2             40.0621564810       -0.0315032562       25.2064418360  SOLV      2088            0.0000000000
      6236      2052  TIP3      OH2            38.3681364810        0.5630967438       21.0012518360  SOLV      2089            0.0000000000
      6237      2052  TIP3      H1             38.8072064810        1.1741467438       20.4096018360  SOLV      2089            0.0000000000
      6238      2052  TIP3      H2             37.7343764810        1.1015067438       21.4752518360  SOLV      2089            0.0000000000
      6239      2053  TIP3      OH2            44.1110564810        0.6919967438       25.0109518360  SOLV      2090            0.0000000000
      6240      2053  TIP3      H1             44.9853964810        1.0804267438       24.9813818360  SOLV      2090            0.0000000000
      6241      2053  TIP3      H2             43.9751364810        0.4767767438       25.9336718360  SOLV      2090            0.0000000000
      6242      2054  TIP3      OH2            49.6678964810        0.7219767438       26.6601218360  SOLV      2091            0.0000000000
      6243      2054  TIP3      H1             49.7440564810        0.8171367438       25.7107218360  SOLV      2091            0.0000000000
      6244      2054  TIP3      H2             49.3928164810       -0.1857332562       26.7890318360  SOLV      2091            0.0000000000
      6245      2055  TIP3      OH2            38.2690864810       16.5113167438       21.8987618360  SOLV      2092            0.0000000000
      6246      2055  TIP3      H1             37.5840764810       16.4732067438       21.2312718360  SOLV      2092            0.0000000000
      6247      2055  TIP3      H2             38.2728064810       17.4240767438       22.1869718360  SOLV      2092            0.0000000000
      6248      2056  TIP3      OH2            40.2290464810        2.4792467438       19.4436618360  SOLV      2093            0.0000000000
      6249      2056  TIP3      H1             40.7203864810        1.8494867438       18.9162118360  SOLV      2093            0.0000000000
      6250      2056  TIP3      H2             40.8526764810        2.7751867438       20.1067818360  SOLV      2093            0.0000000000
      6251      2057  TIP3      OH2            45.2550564810        2.7723967438       21.9007118360  SOLV      2094            0.0000000000
      6252      2057  TIP3      H1             45.4331864810        2.1257167438       22.5835718360  SOLV      2094            0.0000000000
      6253      2057  TIP3      H2             45.2016764810        3.6061667438       22.3678218360  SOLV      2094            0.0000000000
      6254      2058  TIP3      OH2            47.1334364810       17.7208067438       20.2963818360  SOLV      2095            0.0000000000
      6255      2058  TIP3      H1             47.9994564810       18.0875467438       20.1182018360  SOLV      2095            0.0000000000
      6256      2058  TIP3      H2             46.8867164810       17.2816067438       19.4824618360  SOLV      2095            0.0000000000
      6257      2059  TIP3      OH2            39.4895964810        1.2794767438       34.7152618360  SOLV      2096            0.0000000000
      6258      2059  TIP3      H1             39.1234164810        0.5137367438       35.1577318360  SOLV      2096            0.0000000000
      6259      2059  TIP3      H2             40.4024464810        1.3084967438       35.0017718360  SOLV      2096            0.0000000000
      6260      2060  TIP3      OH2            41.4626764810        0.6299167438       36.2509718360  SOLV      2097            0.0000000000
      6261      2060  TIP3      H1             42.3610364810        0.3559367438       36.0663118360  SOLV      2097            0.0000000000
      6262      2060  TIP3      H2             41.0759864810       -0.1124832562       36.7152318360  SOLV      2097            0.0000000000
      6263      2061  TIP3      OH2            40.0872064810       17.4313967438       18.9239718360  SOLV      2098            0.0000000000
      6264      2061  TIP3      H1             39.8196664810       17.7176867438       19.7972818360  SOLV      2098            0.0000000000
      6265      2061  TIP3      H2             40.8584664810       16.8853167438       19.0762218360  SOLV      2098            0.0000000000
      6266      2062  TIP3      OH2            11.6100564810       28.4215167438       25.1563918360  SOLV      2099            0.0000000000
      6267      2062  TIP3      H1             11.6991664810       29.3653367438       25.0241018360  SOLV      2099            0.0000000000
      6268      2062  TIP3      H2             10.9718164810       28.1461567438       24.4983318360  SOLV      2099            0.0000000000
      6269      2063  TIP3      OH2            10.5431864810       27.6765867438       28.5752118360  SOLV      2100            0.0000000000
      6270      2063  TIP3      H1             10.5049364810       27.0302167438       29.2801718360  SOLV      2100            0.0000000000
      6271      2063  TIP3      H2             10.2208364810       27.2100267438       27.8040818360  SOLV      2100            0.0000000000
      6272      2064  TIP3      OH2             2.9116864810       27.2907967438       30.1682018360  SOLV      2101            0.0000000000
      6273      2064  TIP3      H1              2.9528964810       26.6651267438       30.8914418360  SOLV      2101            0.0000000000
      6274      2064  TIP3      H2              3.6144564810       27.9146567438       30.3502418360  SOLV      2101            0.0000000000
      6275      2065  TIP3      OH2            14.2492064810       30.6156267438       26.8767218360  SOLV      2102            0.0000000000
      6276      2065  TIP3      H1             13.8084764810       29.8952267438       27.3272818360  SOLV      2102            0.0000000000
      6277      2065  TIP3      H2             14.2361764810       31.3363467438       27.5064918360  SOLV      2102            0.0000000000
      6278      2066  TIP3      OH2             3.8349964810       31.7406867438       28.7031118360  SOLV      2103            0.0000000000
      6279      2066  TIP3      H1              3.4655164810       30.9387367438       28.3335418360  SOLV      2103            0.0000000000
      6280      2066  TIP3      H2              4.7761064810       31.5721767438       28.7494518360  SOLV      2103            0.0000000000
      6281      2067  TIP3      OH2             0.4450464810       25.4009467438       24.0959918360  SOLV      2104            0.0000000000
      6282      2067  TIP3      H1             -0.0026135190       26.2468167438       24.0776418360  SOLV      2104            0.0000000000
      6283      2067  TIP3      H2             -0.1158335190       24.8213667438       23.5805018360  SOLV      2104            0.0000000000
      6284      2068  TIP3      OH2             1.1556564810       27.5629067438       26.2217918360  SOLV      2105            0.0000000000
      6285      2068  TIP3      H1              1.3690064810       26.7930667438       26.7490918360  SOLV      2105            0.0000000000
      6286      2068  TIP3      H2              1.8934164810       27.6525767438       25.6185518360  SOLV      2105            0.0000000000
      6287      2069  TIP3      OH2            11.3607564810       35.7197967438       27.0887618360  SOLV      2106            0.0000000000
      6288      2069  TIP3      H1             11.9803964810       35.0432667438       26.8156818360  SOLV      2106            0.0000000000
      6289      2069  TIP3      H2             11.1524964810       35.5018767438       27.9972518360  SOLV      2106            0.0000000000
      6290      2070  TIP3      OH2             8.9326264810       30.1087267438       28.9813118360  SOLV      2107            0.0000000000
      6291      2070  TIP3      H1              9.2364164810       29.4228667438       28.3867218360  SOLV      2107            0.0000000000
      6292      2070  TIP3      H2              9.6540264810       30.2275967438       29.5991118360  SOLV      2107            0.0000000000
      6293      2071  TIP3      OH2            17.5956064810       21.7102567438       29.8419318360  SOLV      2108            0.0000000000
      6294      2071  TIP3      H1             17.6448264810       22.3203767438       30.5778418360  SOLV      2108            0.0000000000
      6295      2071  TIP3      H2             18.0211164810       22.1713467438       29.1190418360  SOLV      2108            0.0000000000
      6296      2072  TIP3      OH2            12.0733264810       24.5029667438       29.3087918360  SOLV      2109            0.0000000000
      6297      2072  TIP3      H1             12.2159164810       23.5566667438       29.3289518360  SOLV      2109            0.0000000000
      6298      2072  TIP3      H2             11.9672264810       24.7099467438       28.3802818360  SOLV      2109            0.0000000000
      6299      2073  TIP3      OH2             5.2281564810       22.6046067438       26.5812718360  SOLV      2110            0.0000000000
      6300      2073  TIP3      H1              5.2712664810       23.4644567438       26.1629018360  SOLV      2110            0.0000000000
      6301      2073  TIP3      H2              4.7705664810       22.0520767438       25.9475918360  SOLV      2110            0.0000000000
      6302      2074  TIP3      OH2            12.9504264810       22.7351667438       24.9821018360  SOLV      2111            0.0000000000
      6303      2074  TIP3      H1             13.5968564810       22.4064867438       25.6068618360  SOLV      2111            0.0000000000
      6304      2074  TIP3      H2             13.4603664810       23.2530667438       24.3592418360  SOLV      2111            0.0000000000
      6305      2075  TIP3      OH2             1.8483064810       25.0011867438       27.3434118360  SOLV      2112            0.0000000000
      6306      2075  TIP3      H1              2.5019664810       24.4513567438       27.7754218360  SOLV      2112            0.0000000000
      6307      2075  TIP3      H2              1.8722364810       24.7270867438       26.4266118360  SOLV      2112            0.0000000000
      6308      2076  TIP3      OH2             7.0047564810       26.5513167438       26.5585618360  SOLV      2113            0.0000000000
      6309      2076  TIP3      H1              7.6208564810       26.0248567438       27.0679618360  SOLV      2113            0.0000000000
      6310      2076  TIP3      H2              6.4186364810       25.9111867438       26.1549218360  SOLV      2113            0.0000000000
      6311      2077  TIP3      OH2            17.9870664810       23.1881767438       32.0779118360  SOLV      2114            0.0000000000
      6312      2077  TIP3      H1             17.2985264810       23.8462467438       31.9825718360  SOLV      2114            0.0000000000
      6313      2077  TIP3      H2             18.0025264810       22.9909667438       33.0144518360  SOLV      2114            0.0000000000
      6314      2078  TIP3      OH2             4.0383464810       21.5224467438       30.6553518360  SOLV      2115            0.0000000000
      6315      2078  TIP3      H1              3.8195164810       22.0525067438       29.8889518360  SOLV      2115            0.0000000000
      6316      2078  TIP3      H2              3.3704364810       21.7489967438       31.3024918360  SOLV      2115            0.0000000000
      6317      2079  TIP3      OH2            11.4073264810       31.0225567438       24.1992618360  SOLV      2116            0.0000000000
      6318      2079  TIP3      H1             11.1118364810       30.6997867438       23.3479518360  SOLV      2116            0.0000000000
      6319      2079  TIP3      H2             11.0831064810       31.9222267438       24.2405218360  SOLV      2116            0.0000000000
      6320      2080  TIP3      OH2             6.6074864810       29.1980167438       30.9427218360  SOLV      2117            0.0000000000
      6321      2080  TIP3      H1              5.8673964810       29.7961667438       31.0462418360  SOLV      2117            0.0000000000
      6322      2080  TIP3      H2              7.3214364810       29.7519767438       30.6270818360  SOLV      2117            0.0000000000
      6323      2081  TIP3      OH2            14.7142664810       22.0260967438       26.9626918360  SOLV      2118            0.0000000000
      6324      2081  TIP3      H1             14.4990664810       21.2604367438       27.4952918360  SOLV      2118            0.0000000000
      6325      2081  TIP3      H2             15.3700064810       22.4985567438       27.4755418360  SOLV      2118            0.0000000000
      6326      2082  TIP3      OH2             3.6320764810       23.4146267438       28.6075718360  SOLV      2119            0.0000000000
      6327      2082  TIP3      H1              4.2457064810       24.0473867438       28.9808118360  SOLV      2119            0.0000000000
      6328      2082  TIP3      H2              4.1441464810       22.9421267438       27.9512618360  SOLV      2119            0.0000000000
      6329      2083  TIP3      OH2             5.0149164810       31.1623167438       31.7298718360  SOLV      2120            0.0000000000
      6330      2083  TIP3      H1              5.0096764810       32.0416667438       31.3518018360  SOLV      2120            0.0000000000
      6331      2083  TIP3      H2              4.1613264810       31.0787267438       32.1548618360  SOLV      2120            0.0000000000
      6332      2084  TIP3      OH2             1.1360064810       30.8331067438       22.5118018360  SOLV      2121            0.0000000000
      6333      2084  TIP3      H1              0.8640964810       31.0622067438       21.6230918360  SOLV      2121            0.0000000000
      6334      2084  TIP3      H2              1.1815764810       31.6709867438       22.9723318360  SOLV      2121            0.0000000000
      6335      2085  TIP3      OH2            14.7609764810       32.4546967438       29.2246518360  SOLV      2122            0.0000000000
      6336      2085  TIP3      H1             13.8193464810       32.5130867438       29.3863418360  SOLV      2122            0.0000000000
      6337      2085  TIP3      H2             15.0375864810       33.3607467438       29.0876218360  SOLV      2122            0.0000000000
      6338      2086  TIP3      OH2            15.0616764810       20.7412267438       30.6420418360  SOLV      2123            0.0000000000
      6339      2086  TIP3      H1             14.3255964810       21.3519367438       30.6041718360  SOLV      2123            0.0000000000
      6340      2086  TIP3      H2             15.7450764810       21.1561267438       30.1156818360  SOLV      2123            0.0000000000
      6341      2087  TIP3      OH2             8.0648164810       18.8279567438       28.1078418360  SOLV      2124            0.0000000000
      6342      2087  TIP3      H1              7.9472364810       17.8795567438       28.0536718360  SOLV      2124            0.0000000000
      6343      2087  TIP3      H2              7.2098264810       19.1605667438       28.3809518360  SOLV      2124            0.0000000000
      6344      2088  TIP3      OH2            13.0130964810       34.2360467438       25.8498118360  SOLV      2125            0.0000000000
      6345      2088  TIP3      H1             13.4383264810       33.5288367438       25.3647718360  SOLV      2125            0.0000000000
      6346      2088  TIP3      H2             13.3300964810       35.0373167438       25.4330318360  SOLV      2125            0.0000000000
      6347      2089  TIP3      OH2            14.1727464810       32.1368967438       24.3584718360  SOLV      2126            0.0000000000
      6348      2089  TIP3      H1             13.9152264810       31.4469067438       23.7470618360  SOLV      2126            0.0000000000
      6349      2089  TIP3      H2             14.2438264810       31.6940167438       25.2040618360  SOLV      2126            0.0000000000
      6350      2090  TIP3      OH2            15.8587664810       30.7035667438       32.8358218360  SOLV      2127            0.0000000000
      6351      2090  TIP3      H1             15.9983964810       30.1118167438       32.0965218360  SOLV      2127            0.0000000000
      6352      2090  TIP3      H2             16.0260464810       31.5761567438       32.4797018360  SOLV      2127            0.0000000000
      6353      2091  TIP3      OH2            10.3313064810       27.6655167438       22.6084218360  SOLV      2128            0.0000000000
      6354      2091  TIP3      H1              9.6198564810       28.2004867438       22.2564718360  SOLV      2128            0.0000000000
      6355      2091  TIP3      H2             11.0222664810       27.7207267438       21.9483118360  SOLV      2128            0.0000000000
      6356      2092  TIP3      OH2            10.3852264810       26.1229467438       19.6469218360  SOLV      2129            0.0000000000
      6357      2092  TIP3      H1             11.0862164810       26.1456367438       20.2983218360  SOLV      2129            0.0000000000
      6358      2092  TIP3      H2             10.6875164810       25.4949167438       18.9908518360  SOLV      2129            0.0000000000
      6359      2093  TIP3      OH2            17.7006964810       27.0433667438       30.9018618360  SOLV      2130            0.0000000000
      6360      2093  TIP3      H1             17.0481064810       27.7379267438       30.9909518360  SOLV      2130            0.0000000000
      6361      2093  TIP3      H2             18.1657264810       27.2534567438       30.0920218360  SOLV      2130            0.0000000000
      6362      2094  TIP3      OH2            13.7370764810       27.8748467438       23.5600118360  SOLV      2131            0.0000000000
      6363      2094  TIP3      H1             13.0051764810       28.1032167438       24.1330718360  SOLV      2131            0.0000000000
      6364      2094  TIP3      H2             14.1842964810       27.1611167438       24.0147618360  SOLV      2131            0.0000000000
      6365      2095  TIP3      OH2            13.6344264810       26.0491067438       32.6277118360  SOLV      2132            0.0000000000
      6366      2095  TIP3      H1             13.7143364810       26.8125467438       33.1995618360  SOLV      2132            0.0000000000
      6367      2095  TIP3      H2             13.0331964810       26.3283467438       31.9372218360  SOLV      2132            0.0000000000
      6368      2096  TIP3      OH2             5.3824464810       28.5054667438       25.4425118360  SOLV      2133            0.0000000000
      6369      2096  TIP3      H1              5.0519664810       28.1348067438       24.6242118360  SOLV      2133            0.0000000000
      6370      2096  TIP3      H2              5.9708564810       27.8348667438       25.7893418360  SOLV      2133            0.0000000000
      6371      2097  TIP3      OH2             6.7491964810       31.9335267438       28.1237318360  SOLV      2134            0.0000000000
      6372      2097  TIP3      H1              6.6543264810       31.3548367438       27.3671918360  SOLV      2134            0.0000000000
      6373      2097  TIP3      H2              7.4785564810       31.5620967438       28.6200118360  SOLV      2134            0.0000000000
      6374      2098  TIP3      OH2             5.7489964810       27.2740267438       29.0760118360  SOLV      2135            0.0000000000
      6375      2098  TIP3      H1              6.3142464810       27.3954467438       28.3131318360  SOLV      2135            0.0000000000
      6376      2098  TIP3      H2              6.0678864810       27.9115267438       29.7148618360  SOLV      2135            0.0000000000
      6377      2099  TIP3      OH2            12.0582164810       32.7772167438       29.8100618360  SOLV      2136            0.0000000000
      6378      2099  TIP3      H1             11.8178764810       33.4395267438       30.4579818360  SOLV      2136            0.0000000000
      6379      2099  TIP3      H2             11.8600364810       31.9427367438       30.2350218360  SOLV      2136            0.0000000000
      6380      2100  TIP3      OH2             6.6290664810       31.6732967438       33.7932018360  SOLV      2137            0.0000000000
      6381      2100  TIP3      H1              6.3178164810       32.4556167438       34.2485218360  SOLV      2137            0.0000000000
      6382      2100  TIP3      H2              5.9790864810       31.5202067438       33.1074018360  SOLV      2137            0.0000000000
      6383      2101  TIP3      OH2            12.6080264810       27.0371367438       21.2451318360  SOLV      2138            0.0000000000
      6384      2101  TIP3      H1             13.1875764810       27.1871667438       21.9920218360  SOLV      2138            0.0000000000
      6385      2101  TIP3      H2             13.0220264810       27.5078767438       20.5217718360  SOLV      2138            0.0000000000
      6386      2102  TIP3      OH2             3.5490564810       27.8714067438       33.0217718360  SOLV      2139            0.0000000000
      6387      2102  TIP3      H1              3.6193764810       28.5220867438       33.7202718360  SOLV      2139            0.0000000000
      6388      2102  TIP3      H2              2.6582764810       27.9741567438       32.6868618360  SOLV      2139            0.0000000000
      6389      2103  TIP3      OH2            10.3345164810       33.7739867438       24.6804418360  SOLV      2140            0.0000000000
      6390      2103  TIP3      H1             10.8082764810       34.0696167438       25.4578618360  SOLV      2140            0.0000000000
      6391      2103  TIP3      H2              9.7714464810       34.5121467438       24.4474018360  SOLV      2140            0.0000000000
      6392      2104  TIP3      OH2             4.8686564810       33.7447967438       34.5565818360  SOLV      2141            0.0000000000
      6393      2104  TIP3      H1              4.8761864810       33.6087667438       33.6091318360  SOLV      2141            0.0000000000
      6394      2104  TIP3      H2              3.9526964810       33.6276067438       34.8085818360  SOLV      2141            0.0000000000
      6395      2105  TIP3      OH2            16.3068664810       18.7871767438       21.0581018360  SOLV      2142            0.0000000000
      6396      2105  TIP3      H1             15.4069364810       18.9260767438       21.3531618360  SOLV      2142            0.0000000000
      6397      2105  TIP3      H2             16.5587064810       19.6186367438       20.6562718360  SOLV      2142            0.0000000000
      6398      2106  TIP3      OH2             4.3727164810       27.5748967438       23.0317918360  SOLV      2143            0.0000000000
      6399      2106  TIP3      H1              4.0808464810       28.3430667438       22.5409218360  SOLV      2143            0.0000000000
      6400      2106  TIP3      H2              3.6982364810       26.9155167438       22.8689318360  SOLV      2143            0.0000000000
      6401      2107  TIP3      OH2            17.4960064810       33.1534167438       19.4344918360  SOLV      2144            0.0000000000
      6402      2107  TIP3      H1             17.5693564810       34.0924367438       19.6050218360  SOLV      2144            0.0000000000
      6403      2107  TIP3      H2             18.4015164810       32.8482767438       19.3782218360  SOLV      2144            0.0000000000
      6404      2108  TIP3      OH2             0.4657264810       29.9378167438       31.8467718360  SOLV      2145            0.0000000000
      6405      2108  TIP3      H1             -0.0354335190       29.9097567438       31.0317418360  SOLV      2145            0.0000000000
      6406      2108  TIP3      H2              0.4710964810       29.0321367438       32.1565018360  SOLV      2145            0.0000000000
      6407      2109  TIP3      OH2             0.2159964810       32.7181967438       28.7307918360  SOLV      2146            0.0000000000
      6408      2109  TIP3      H1              1.1620564810       32.5738967438       28.7117418360  SOLV      2146            0.0000000000
      6409      2109  TIP3      H2              0.1036264810       33.5024767438       29.2679118360  SOLV      2146            0.0000000000
      6410      2110  TIP3      OH2            18.4138464810       33.3841667438       34.4131618360  SOLV      2147            0.0000000000
      6411      2110  TIP3      H1             18.3645264810       32.4289767438       34.3759218360  SOLV      2147            0.0000000000
      6412      2110  TIP3      H2             17.5870764810       33.6516967438       34.8145418360  SOLV      2147            0.0000000000
      6413      2111  TIP3      OH2             9.3922464810       32.9580867438       33.2893018360  SOLV      2148            0.0000000000
      6414      2111  TIP3      H1              9.4797064810       33.7845467438       33.7642118360  SOLV      2148            0.0000000000
      6415      2111  TIP3      H2              8.5287564810       32.6284667438       33.5382318360  SOLV      2148            0.0000000000
      6416      2112  TIP3      OH2             9.8068264810       36.7304567438       23.0953618360  SOLV      2149            0.0000000000
      6417      2112  TIP3      H1              9.7314264810       36.6091767438       22.1488818360  SOLV      2149            0.0000000000
      6418      2112  TIP3      H2              9.8396964810       37.6797267438       23.2138218360  SOLV      2149            0.0000000000
      6419      2113  TIP3      OH2             3.4602064810       35.5191567438       24.8762618360  SOLV      2150            0.0000000000
      6420      2113  TIP3      H1              3.6122464810       35.1711967438       25.7549118360  SOLV      2150            0.0000000000
      6421      2113  TIP3      H2              2.6092464810       35.1628867438       24.6209818360  SOLV      2150            0.0000000000
      6422      2114  TIP3      OH2            12.9084264810       35.8844767438       20.0976018360  SOLV      2151            0.0000000000
      6423      2114  TIP3      H1             13.2832664810       35.1400867438       19.6268618360  SOLV      2151            0.0000000000
      6424      2114  TIP3      H2             12.9127964810       35.6145367438       21.0159318360  SOLV      2151            0.0000000000
      6425      2115  TIP3      OH2            12.5772364810       35.8101867438       22.8468218360  SOLV      2152            0.0000000000
      6426      2115  TIP3      H1             11.6422164810       35.9103767438       23.0255218360  SOLV      2152            0.0000000000
      6427      2115  TIP3      H2             12.8574264810       35.1007867438       23.4251418360  SOLV      2152            0.0000000000
      6428      2116  TIP3      OH2            15.5658264810       24.8774167438       34.8933818360  SOLV      2153            0.0000000000
      6429      2116  TIP3      H1             15.1585064810       25.3579767438       34.1727118360  SOLV      2153            0.0000000000
      6430      2116  TIP3      H2             15.6063964810       23.9720167438       34.5854618360  SOLV      2153            0.0000000000
      6431      2117  TIP3      OH2             2.7147764810       31.2613567438       32.8900518360  SOLV      2154            0.0000000000
      6432      2117  TIP3      H1              2.9309064810       30.8999167438       33.7496318360  SOLV      2154            0.0000000000
      6433      2117  TIP3      H2              1.8592464810       30.8867367438       32.6804018360  SOLV      2154            0.0000000000
      6434      2118  TIP3      OH2             5.3335764810       19.7314067438       28.8854718360  SOLV      2155            0.0000000000
      6435      2118  TIP3      H1              4.4719464810       19.6442267438       28.4777618360  SOLV      2155            0.0000000000
      6436      2118  TIP3      H2              5.3111464810       20.5874167438       29.3132318360  SOLV      2155            0.0000000000
      6437      2119  TIP3      OH2             9.9963564810       19.4534467438       32.2601718360  SOLV      2156            0.0000000000
      6438      2119  TIP3      H1             10.4166664810       19.0381567438       33.0132318360  SOLV      2156            0.0000000000
      6439      2119  TIP3      H2              9.0633164810       19.2747767438       32.3773718360  SOLV      2156            0.0000000000
      6440      2120  TIP3      OH2            13.3228464810       23.2089667438       33.1136218360  SOLV      2157            0.0000000000
      6441      2120  TIP3      H1             12.8087964810       23.0831867438       33.9112218360  SOLV      2157            0.0000000000
      6442      2120  TIP3      H2             13.1673164810       24.1212767438       32.8692418360  SOLV      2157            0.0000000000
      6443      2121  TIP3      OH2            14.0853364810       28.0699667438       18.8749218360  SOLV      2158            0.0000000000
      6444      2121  TIP3      H1             14.1274164810       27.8473567438       17.9449218360  SOLV      2158            0.0000000000
      6445      2121  TIP3      H2             14.9345464810       28.4686767438       19.0649118360  SOLV      2158            0.0000000000
      6446      2122  TIP3      OH2             9.6580864810       21.9457867438       19.5452518360  SOLV      2159            0.0000000000
      6447      2122  TIP3      H1              9.4045664810       21.9649467438       20.4680618360  SOLV      2159            0.0000000000
      6448      2122  TIP3      H2              9.4012964810       21.0743267438       19.2438718360  SOLV      2159            0.0000000000
      6449      2123  TIP3      OH2             5.4245864810       24.6968567438       29.9804918360  SOLV      2160            0.0000000000
      6450      2123  TIP3      H1              4.7827964810       24.6565867438       30.6895018360  SOLV      2160            0.0000000000
      6451      2123  TIP3      H2              5.4617864810       25.6233267438       29.7427918360  SOLV      2160            0.0000000000
      6452      2124  TIP3      OH2             5.4214964810       24.9178667438       24.8924918360  SOLV      2161            0.0000000000
      6453      2124  TIP3      H1              4.5287864810       24.5774767438       24.8338718360  SOLV      2161            0.0000000000
      6454      2124  TIP3      H2              5.8721564810       24.5409567438       24.1368118360  SOLV      2161            0.0000000000
      6455      2125  TIP3      OH2            10.9570464810       25.3338967438       23.7095718360  SOLV      2162            0.0000000000
      6456      2125  TIP3      H1             10.5480764810       26.1487567438       23.4180518360  SOLV      2162            0.0000000000
      6457      2125  TIP3      H2             11.6776664810       25.1939067438       23.0952818360  SOLV      2162            0.0000000000
      6458      2126  TIP3      OH2            10.0592064810       25.5095367438       35.1976418360  SOLV      2163            0.0000000000
      6459      2126  TIP3      H1              9.4965864810       24.8046967438       35.5184218360  SOLV      2163            0.0000000000
      6460      2126  TIP3      H2             10.8855464810       25.3887267438       35.6654018360  SOLV      2163            0.0000000000
      6461      2127  TIP3      OH2            11.9618164810       24.7799367438       26.5235418360  SOLV      2164            0.0000000000
      6462      2127  TIP3      H1             11.7662664810       25.3856167438       25.8086018360  SOLV      2164            0.0000000000
      6463      2127  TIP3      H2             12.1430764810       23.9464567438       26.0891718360  SOLV      2164            0.0000000000
      6464      2128  TIP3      OH2             3.1746364810       25.0172067438       31.8476918360  SOLV      2165            0.0000000000
      6465      2128  TIP3      H1              3.1365764810       25.4173667438       32.7164018360  SOLV      2165            0.0000000000
      6466      2128  TIP3      H2              2.6837464810       24.2004467438       31.9379818360  SOLV      2165            0.0000000000
      6467      2129  TIP3      OH2             6.5403764810       22.3914367438       18.6462918360  SOLV      2166            0.0000000000
      6468      2129  TIP3      H1              6.1094464810       21.9464467438       19.3760318360  SOLV      2166            0.0000000000
      6469      2129  TIP3      H2              5.8222464810       22.7630667438       18.1340418360  SOLV      2166            0.0000000000
      6470      2130  TIP3      OH2            -0.2172835190       22.1333867438       25.6981618360  SOLV      2167            0.0000000000
      6471      2130  TIP3      H1              0.4134864810       22.1045967438       26.4175518360  SOLV      2167            0.0000000000
      6472      2130  TIP3      H2              0.2321464810       21.7082567438       24.9677518360  SOLV      2167            0.0000000000
      6473      2131  TIP3      OH2             1.0569264810       22.8795867438       21.1222018360  SOLV      2168            0.0000000000
      6474      2131  TIP3      H1              1.5310964810       23.4705767438       20.5372918360  SOLV      2168            0.0000000000
      6475      2131  TIP3      H2              0.3395664810       23.4098767438       21.4692118360  SOLV      2168            0.0000000000
      6476      2132  TIP3      OH2            11.2257364810       26.4180667438       31.1947818360  SOLV      2169            0.0000000000
      6477      2132  TIP3      H1             11.5492164810       25.7870367438       30.5518318360  SOLV      2169            0.0000000000
      6478      2132  TIP3      H2             10.7856664810       25.8832867438       31.8555218360  SOLV      2169            0.0000000000
      6479      2133  TIP3      OH2             8.0030264810       22.3456167438       25.9789018360  SOLV      2170            0.0000000000
      6480      2133  TIP3      H1              7.0921364810       22.4022967438       26.2675018360  SOLV      2170            0.0000000000
      6481      2133  TIP3      H2              8.5083164810       22.2851667438       26.7896218360  SOLV      2170            0.0000000000
      6482      2134  TIP3      OH2             2.8313664810       23.9742467438       24.8056618360  SOLV      2171            0.0000000000
      6483      2134  TIP3      H1              1.9421664810       24.0737967438       24.4656218360  SOLV      2171            0.0000000000
      6484      2134  TIP3      H2              3.1278564810       23.1325467438       24.4594518360  SOLV      2171            0.0000000000
      6485      2135  TIP3      OH2             6.4845464810       23.9745067438       22.4621218360  SOLV      2172            0.0000000000
      6486      2135  TIP3      H1              7.4160964810       24.1035067438       22.6404318360  SOLV      2172            0.0000000000
      6487      2135  TIP3      H2              6.2695764810       24.6439367438       21.8125918360  SOLV      2172            0.0000000000
      6488      2136  TIP3      OH2            12.4082164810       21.5802467438       29.2430818360  SOLV      2173            0.0000000000
      6489      2136  TIP3      H1             11.7313764810       21.7115567438       29.9070518360  SOLV      2173            0.0000000000
      6490      2136  TIP3      H2             11.9227064810       21.4251967438       28.4328518360  SOLV      2173            0.0000000000
      6491      2137  TIP3      OH2             5.1585664810       25.1687267438       20.0287318360  SOLV      2174            0.0000000000
      6492      2137  TIP3      H1              4.6160764810       24.7891067438       19.3374918360  SOLV      2174            0.0000000000
      6493      2137  TIP3      H2              5.9920564810       25.3631967438       19.6001418360  SOLV      2174            0.0000000000
      6494      2138  TIP3      OH2            15.6957264810       37.2517867438       35.5198418360  SOLV      2175            0.0000000000
      6495      2138  TIP3      H1             15.8955964810       37.6759767438       34.6853718360  SOLV      2175            0.0000000000
      6496      2138  TIP3      H2             16.3510964810       37.5956067438       36.1268818360  SOLV      2175            0.0000000000
      6497      2139  TIP3      OH2             3.2937064810       29.7259167438       35.1278918360  SOLV      2176            0.0000000000
      6498      2139  TIP3      H1              4.0259464810       29.9805067438       35.6893418360  SOLV      2176            0.0000000000
      6499      2139  TIP3      H2              2.5135764810       29.9304567438       35.6434318360  SOLV      2176            0.0000000000
      6500      2140  TIP3      OH2             9.3229964810       25.1329167438       27.8658618360  SOLV      2177            0.0000000000
      6501      2140  TIP3      H1              9.8873364810       24.5865767438       27.3188218360  SOLV      2177            0.0000000000
      6502      2140  TIP3      H2              9.1753364810       24.6111067438       28.6546218360  SOLV      2177            0.0000000000
      6503      2141  TIP3      OH2             4.3249664810       21.2695267438       24.2843418360  SOLV      2178            0.0000000000
      6504      2141  TIP3      H1              4.0079164810       20.3670567438       24.2488818360  SOLV      2178            0.0000000000
      6505      2141  TIP3      H2              5.1063764810       21.2712667438       23.7315018360  SOLV      2178            0.0000000000
      6506      2142  TIP3      OH2             7.9495864810       23.5215267438       30.2799018360  SOLV      2179            0.0000000000
      6507      2142  TIP3      H1              7.1141164810       23.9754767438       30.3901418360  SOLV      2179            0.0000000000
      6508      2142  TIP3      H2              8.4736464810       23.7973767438       31.0318918360  SOLV      2179            0.0000000000
      6509      2143  TIP3      OH2             8.4938464810       29.7342967438       21.9645418360  SOLV      2180            0.0000000000
      6510      2143  TIP3      H1              7.7489464810       29.2268267438       21.6423318360  SOLV      2180            0.0000000000
      6511      2143  TIP3      H2              8.3595664810       29.7830967438       22.9110218360  SOLV      2180            0.0000000000
      6512      2144  TIP3      OH2            15.6437364810       28.8671167438       30.7513018360  SOLV      2181            0.0000000000
      6513      2144  TIP3      H1             16.2856164810       29.3237467438       30.2075218360  SOLV      2181            0.0000000000
      6514      2144  TIP3      H2             14.8134264810       28.9803567438       30.2887118360  SOLV      2181            0.0000000000
      6515      2145  TIP3      OH2            12.3915264810       22.5482867438       20.1638018360  SOLV      2182            0.0000000000
      6516      2145  TIP3      H1             11.4529464810       22.6598467438       20.0126818360  SOLV      2182            0.0000000000
      6517      2145  TIP3      H2             12.6887364810       23.4049767438       20.4703718360  SOLV      2182            0.0000000000
      6518      2146  TIP3      OH2            10.0130564810       29.9186267438       33.2014518360  SOLV      2183            0.0000000000
      6519      2146  TIP3      H1              9.6676664810       29.5368667438       34.0084118360  SOLV      2183            0.0000000000
      6520      2146  TIP3      H2              9.8130664810       30.8519867438       33.2727418360  SOLV      2183            0.0000000000
      6521      2147  TIP3      OH2            13.1098764810       24.4155567438       21.8245418360  SOLV      2184            0.0000000000
      6522      2147  TIP3      H1             14.0017764810       24.2780567438       22.1436618360  SOLV      2184            0.0000000000
      6523      2147  TIP3      H2             13.1662364810       25.2061667438       21.2878918360  SOLV      2184            0.0000000000
      6524      2148  TIP3      OH2             3.6186764810       29.0292967438       27.7343318360  SOLV      2185            0.0000000000
      6525      2148  TIP3      H1              4.3633964810       29.0268667438       27.1329818360  SOLV      2185            0.0000000000
      6526      2148  TIP3      H2              3.6963364810       28.2056767438       28.2158418360  SOLV      2185            0.0000000000
      6527      2149  TIP3      OH2            10.6192564810       31.1927267438       20.9900018360  SOLV      2186            0.0000000000
      6528      2149  TIP3      H1             10.3240964810       32.0195167438       21.3714818360  SOLV      2186            0.0000000000
      6529      2149  TIP3      H2              9.9162564810       30.5734167438       21.1861418360  SOLV      2186            0.0000000000
      6530      2150  TIP3      OH2             0.6266464810       27.4899867438       33.0491818360  SOLV      2187            0.0000000000
      6531      2150  TIP3      H1              0.8495064810       27.0719467438       33.8809318360  SOLV      2187            0.0000000000
      6532      2150  TIP3      H2              0.0246564810       26.8774867438       32.6264618360  SOLV      2187            0.0000000000
      6533      2151  TIP3      OH2             7.6431364810       27.0069767438       35.2621518360  SOLV      2188            0.0000000000
      6534      2151  TIP3      H1              7.3472164810       26.8412767438       34.3670618360  SOLV      2188            0.0000000000
      6535      2151  TIP3      H2              8.5746564810       26.7870067438       35.2515418360  SOLV      2188            0.0000000000
      6536      2152  TIP3      OH2            12.2634164810       32.3801767438       33.1519518360  SOLV      2189            0.0000000000
      6537      2152  TIP3      H1             11.3628464810       32.5634367438       32.8843418360  SOLV      2189            0.0000000000
      6538      2152  TIP3      H2             12.2975264810       32.6391067438       34.0728318360  SOLV      2189            0.0000000000
      6539      2153  TIP3      OH2            17.9947464810       24.6249667438       21.5192118360  SOLV      2190            0.0000000000
      6540      2153  TIP3      H1             17.4403764810       24.2287667438       20.8469618360  SOLV      2190            0.0000000000
      6541      2153  TIP3      H2             18.0951064810       25.5354867438       21.2415418360  SOLV      2190            0.0000000000
      6542      2154  TIP3      OH2            17.9579464810       30.4251367438       34.3563618360  SOLV      2191            0.0000000000
      6543      2154  TIP3      H1             17.1067964810       30.6635167438       33.9890018360  SOLV      2191            0.0000000000
      6544      2154  TIP3      H2             18.5482864810       30.4084567438       33.6030718360  SOLV      2191            0.0000000000
      6545      2155  TIP3      OH2            16.2899164810       33.4110067438       21.9844218360  SOLV      2192            0.0000000000
      6546      2155  TIP3      H1             15.9170264810       32.5853867438       22.2934818360  SOLV      2192            0.0000000000
      6547      2155  TIP3      H2             16.5672664810       33.2279467438       21.0867618360  SOLV      2192            0.0000000000
      6548      2156  TIP3      OH2            13.4503064810       28.2189567438       29.0056118360  SOLV      2193            0.0000000000
      6549      2156  TIP3      H1             12.5219964810       27.9871467438       28.9785418360  SOLV      2193            0.0000000000
      6550      2156  TIP3      H2             13.9014164810       27.4419367438       28.6754918360  SOLV      2193            0.0000000000
      6551      2157  TIP3      OH2             5.9936164810       32.5471167438       25.1384818360  SOLV      2194            0.0000000000
      6552      2157  TIP3      H1              6.5208364810       33.3205567438       24.9383618360  SOLV      2194            0.0000000000
      6553      2157  TIP3      H2              5.1134664810       32.7720367438       24.8368818360  SOLV      2194            0.0000000000
      6554      2158  TIP3      OH2             1.7483864810       27.4095267438       19.7257218360  SOLV      2195            0.0000000000
      6555      2158  TIP3      H1              2.3643764810       28.0362467438       20.1052018360  SOLV      2195            0.0000000000
      6556      2158  TIP3      H2              0.8866464810       27.7255067438       19.9973718360  SOLV      2195            0.0000000000
      6557      2159  TIP3      OH2             7.4208464810       30.2101067438       24.7149118360  SOLV      2196            0.0000000000
      6558      2159  TIP3      H1              7.1798464810       31.1355467438       24.7564418360  SOLV      2196            0.0000000000
      6559      2159  TIP3      H2              6.6802064810       29.7512367438       25.1113018360  SOLV      2196            0.0000000000
      6560      2160  TIP3      OH2             7.9355064810       34.3594667438       31.0300218360  SOLV      2197            0.0000000000
      6561      2160  TIP3      H1              8.2979764810       35.2140267438       30.7964618360  SOLV      2197            0.0000000000
      6562      2160  TIP3      H2              8.4670264810       34.0676267438       31.7706518360  SOLV      2197            0.0000000000
      6563      2161  TIP3      OH2             6.1039264810       35.2318667438       24.2601318360  SOLV      2198            0.0000000000
      6564      2161  TIP3      H1              5.1539764810       35.3376067438       24.3114618360  SOLV      2198            0.0000000000
      6565      2161  TIP3      H2              6.4557364810       36.0526067438       24.6048818360  SOLV      2198            0.0000000000
      6566      2162  TIP3      OH2            11.4795864810       30.4585367438       30.7305818360  SOLV      2199            0.0000000000
      6567      2162  TIP3      H1             11.0537164810       30.2307067438       31.5569818360  SOLV      2199            0.0000000000
      6568      2162  TIP3      H2             12.0601664810       29.7197167438       30.5481118360  SOLV      2199            0.0000000000
      6569      2163  TIP3      OH2            13.6824764810       31.3875867438       19.8044818360  SOLV      2200            0.0000000000
      6570      2163  TIP3      H1             14.0357864810       31.0075667438       20.6088318360  SOLV      2200            0.0000000000
      6571      2163  TIP3      H2             12.7338264810       31.2940667438       19.8914118360  SOLV      2200            0.0000000000
      6572      2164  TIP3      OH2            14.1380064810       35.0104867438       33.2000618360  SOLV      2201            0.0000000000
      6573      2164  TIP3      H1             13.5363264810       34.4547767438       32.7046918360  SOLV      2201            0.0000000000
      6574      2164  TIP3      H2             14.4193764810       35.6774667438       32.5738018360  SOLV      2201            0.0000000000
      6575      2165  TIP3      OH2            18.1859164810       35.8668367438       20.0055018360  SOLV      2202            0.0000000000
      6576      2165  TIP3      H1             18.9297064810       36.4528867438       19.8656618360  SOLV      2202            0.0000000000
      6577      2165  TIP3      H2             17.4917264810       36.4354167438       20.3387418360  SOLV      2202            0.0000000000
      6578      2166  TIP3      OH2             2.2605964810       22.2432567438       32.6073218360  SOLV      2203            0.0000000000
      6579      2166  TIP3      H1              1.3678264810       22.5817967438       32.5397218360  SOLV      2203            0.0000000000
      6580      2166  TIP3      H2              2.1618764810       21.3878667438       33.0254018360  SOLV      2203            0.0000000000
      6581      2167  TIP3      OH2            14.5484064810       30.0597867438       22.0312718360  SOLV      2204            0.0000000000
      6582      2167  TIP3      H1             14.2711664810       29.3317167438       22.5873818360  SOLV      2204            0.0000000000
      6583      2167  TIP3      H2             15.4757064810       30.1789867438       22.2365318360  SOLV      2204            0.0000000000
      6584      2168  TIP3      OH2             1.9117964810       34.0476967438       31.0422618360  SOLV      2205            0.0000000000
      6585      2168  TIP3      H1              2.1288264810       33.1159367438       31.0112318360  SOLV      2205            0.0000000000
      6586      2168  TIP3      H2              2.1581464810       34.3221967438       31.9255418360  SOLV      2205            0.0000000000
      6587      2169  TIP3      OH2             7.7732564810       32.4991967438       18.2514818360  SOLV      2206            0.0000000000
      6588      2169  TIP3      H1              8.0122364810       31.7510067438       17.7043718360  SOLV      2206            0.0000000000
      6589      2169  TIP3      H2              7.5043864810       32.1113667438       19.0842618360  SOLV      2206            0.0000000000
      6590      2170  TIP3      OH2             6.7103164810       32.0695767438       20.7077418360  SOLV      2207            0.0000000000
      6591      2170  TIP3      H1              6.8571164810       31.5495567438       21.4978318360  SOLV      2207            0.0000000000
      6592      2170  TIP3      H2              6.7074864810       32.9763367438       21.0143318360  SOLV      2207            0.0000000000
      6593      2171  TIP3      OH2             3.1634264810       29.3219067438       21.2182818360  SOLV      2208            0.0000000000
      6594      2171  TIP3      H1              2.4773564810       29.6741567438       21.7852518360  SOLV      2208            0.0000000000
      6595      2171  TIP3      H2              3.6862164810       30.0848667438       20.9717118360  SOLV      2208            0.0000000000
      6596      2172  TIP3      OH2            10.9949364810       21.9842867438       31.4971818360  SOLV      2209            0.0000000000
      6597      2172  TIP3      H1             11.6937264810       22.0581567438       32.1471518360  SOLV      2209            0.0000000000
      6598      2172  TIP3      H2             10.6140764810       21.1197867438       31.6514718360  SOLV      2209            0.0000000000
      6599      2173  TIP3      OH2            11.7794264810       21.6364567438       22.5944118360  SOLV      2210            0.0000000000
      6600      2173  TIP3      H1             11.9992564810       22.1079967438       21.7909518360  SOLV      2210            0.0000000000
      6601      2173  TIP3      H2             12.3378264810       22.0307167438       23.2644718360  SOLV      2210            0.0000000000
      6602      2174  TIP3      OH2             9.4480364810       33.7669367438       21.4571618360  SOLV      2211            0.0000000000
      6603      2174  TIP3      H1              8.6316464810       34.2639067438       21.5095918360  SOLV      2211            0.0000000000
      6604      2174  TIP3      H2              9.9776664810       34.2422867438       20.8170418360  SOLV      2211            0.0000000000
      6605      2175  TIP3      OH2             8.9794164810       23.3643367438       23.4292518360  SOLV      2212            0.0000000000
      6606      2175  TIP3      H1              9.7916764810       23.8686567438       23.4754218360  SOLV      2212            0.0000000000
      6607      2175  TIP3      H2              8.7347164810       23.2193067438       24.3432118360  SOLV      2212            0.0000000000
      6608      2176  TIP3      OH2             9.5150564810       24.3506067438       32.6139118360  SOLV      2213            0.0000000000
      6609      2176  TIP3      H1              9.6340864810       24.9241467438       33.3709518360  SOLV      2213            0.0000000000
      6610      2176  TIP3      H2             10.1705164810       23.6625467438       32.7286918360  SOLV      2213            0.0000000000
      6611      2177  TIP3      OH2             9.8630864810       20.4456367438       24.3673618360  SOLV      2214            0.0000000000
      6612      2177  TIP3      H1              9.5164364810       21.0626967438       25.0117918360  SOLV      2214            0.0000000000
      6613      2177  TIP3      H2             10.5217764810       20.9462067438       23.8859118360  SOLV      2214            0.0000000000
      6614      2178  TIP3      OH2             6.7863464810       34.8106567438       21.4388518360  SOLV      2215            0.0000000000
      6615      2178  TIP3      H1              6.9472164810       35.6104067438       20.9381118360  SOLV      2215            0.0000000000
      6616      2178  TIP3      H2              6.5891264810       35.1172567438       22.3239118360  SOLV      2215            0.0000000000
      6617      2179  TIP3      OH2             5.5207864810       21.5085767438       21.0546118360  SOLV      2216            0.0000000000
      6618      2179  TIP3      H1              5.4372664810       22.3968867438       21.4012518360  SOLV      2216            0.0000000000
      6619      2179  TIP3      H2              6.4108164810       21.2432467438       21.2862918360  SOLV      2216            0.0000000000
      6620      2180  TIP3      OH2            15.7196364810       22.2576367438       33.4488818360  SOLV      2217            0.0000000000
      6621      2180  TIP3      H1             14.8032164810       22.5198067438       33.3612518360  SOLV      2217            0.0000000000
      6622      2180  TIP3      H2             16.0551364810       22.2545367438       32.5524118360  SOLV      2217            0.0000000000
      6623      2181  TIP3      OH2            14.3217364810       26.0077367438       27.5446118360  SOLV      2218            0.0000000000
      6624      2181  TIP3      H1             13.5241764810       25.5927567438       27.2161118360  SOLV      2218            0.0000000000
      6625      2181  TIP3      H2             14.7668464810       25.3171067438       28.0356618360  SOLV      2218            0.0000000000
      6626      2182  TIP3      OH2             3.7793164810       31.9357967438       20.1150618360  SOLV      2219            0.0000000000
      6627      2182  TIP3      H1              4.3714664810       32.6352767438       20.3913018360  SOLV      2219            0.0000000000
      6628      2182  TIP3      H2              4.2386164810       31.5027467438       19.3955218360  SOLV      2219            0.0000000000
      6629      2183  TIP3      OH2             2.0952364810       24.6000967438       19.2310018360  SOLV      2220            0.0000000000
      6630      2183  TIP3      H1              2.0504964810       25.5394067438       19.4097018360  SOLV      2220            0.0000000000
      6631      2183  TIP3      H2              1.2075564810       24.3645867438       18.9612118360  SOLV      2220            0.0000000000
      6632      2184  TIP3      OH2            15.4081964810       35.2639867438       29.1669618360  SOLV      2221            0.0000000000
      6633      2184  TIP3      H1             15.2526264810       35.9424267438       28.5098918360  SOLV      2221            0.0000000000
      6634      2184  TIP3      H2             16.3408364810       35.3359167438       29.3700218360  SOLV      2221            0.0000000000
      6635      2185  TIP3      OH2             2.9034364810       19.3817567438       27.9041018360  SOLV      2222            0.0000000000
      6636      2185  TIP3      H1              2.6744164810       19.4410067438       26.9766018360  SOLV      2222            0.0000000000
      6637      2185  TIP3      H2              2.4607764810       18.5903067438       28.2105118360  SOLV      2222            0.0000000000
      6638      2186  TIP3      OH2             1.8337664810       33.3224667438       24.0646818360  SOLV      2223            0.0000000000
      6639      2186  TIP3      H1              1.0016264810       33.7947367438       24.0918218360  SOLV      2223            0.0000000000
      6640      2186  TIP3      H2              2.3795964810       33.8322267438       23.4659918360  SOLV      2223            0.0000000000
      6641      2187  TIP3      OH2             1.1221364810       35.9348367438       35.3944818360  SOLV      2224            0.0000000000
      6642      2187  TIP3      H1              1.6623564810       35.7182367438       36.1544018360  SOLV      2224            0.0000000000
      6643      2187  TIP3      H2              0.6409364810       35.1294367438       35.2047318360  SOLV      2224            0.0000000000
      6644      2188  TIP3      OH2             5.7194764810       34.8542767438       37.0149018360  SOLV      2225            0.0000000000
      6645      2188  TIP3      H1              6.4871964810       34.3953567438       37.3558218360  SOLV      2225            0.0000000000
      6646      2188  TIP3      H2              5.6980964810       34.6282567438       36.0850218360  SOLV      2225            0.0000000000
      6647      2189  TIP3      OH2             9.8114364810       34.3623367438       18.3900818360  SOLV      2226            0.0000000000
      6648      2189  TIP3      H1              9.1675364810       33.7311967438       18.7114518360  SOLV      2226            0.0000000000
      6649      2189  TIP3      H2             10.5732664810       33.8311367438       18.1584318360  SOLV      2226            0.0000000000
      6650      2190  TIP3      OH2            12.2963464810       33.2343867438       35.7440518360  SOLV      2227            0.0000000000
      6651      2190  TIP3      H1             11.9452964810       32.3776867438       35.9870918360  SOLV      2227            0.0000000000
      6652      2190  TIP3      H2             13.0226664810       33.3770567438       36.3509518360  SOLV      2227            0.0000000000
      6653      2191  TIP3      OH2            14.4157264810       34.1793267438       18.6238818360  SOLV      2228            0.0000000000
      6654      2191  TIP3      H1             14.6987664810       33.3848467438       19.0765718360  SOLV      2228            0.0000000000
      6655      2191  TIP3      H2             15.1555164810       34.4124267438       18.0629918360  SOLV      2228            0.0000000000
      6656      2192  TIP3      OH2             1.0290864810       29.7452467438       36.3489118360  SOLV      2229            0.0000000000
      6657      2192  TIP3      H1              1.1731364810       28.8433167438       36.0625818360  SOLV      2229            0.0000000000
      6658      2192  TIP3      H2              0.2568264810       30.0314567438       35.8611418360  SOLV      2229            0.0000000000
      6659      2193  TIP3      OH2             5.3704564810       30.0888167438       18.4813718360  SOLV      2230            0.0000000000
      6660      2193  TIP3      H1              5.4348664810       29.2947767438       19.0120118360  SOLV      2230            0.0000000000
      6661      2193  TIP3      H2              6.0233764810       29.9700967438       17.7915718360  SOLV      2230            0.0000000000
      6662      2194  TIP3      OH2             7.6846964810       29.7150567438       35.7815518360  SOLV      2231            0.0000000000
      6663      2194  TIP3      H1              7.3560764810       29.9858667438       34.9242918360  SOLV      2231            0.0000000000
      6664      2194  TIP3      H2              7.8365164810       28.7740367438       35.6940518360  SOLV      2231            0.0000000000
      6665      2195  TIP3      OH2            10.7227964810       31.1359867438       18.2171718360  SOLV      2232            0.0000000000
      6666      2195  TIP3      H1             10.4542064810       31.3161967438       19.1180618360  SOLV      2232            0.0000000000
      6667      2195  TIP3      H2             10.5163564810       30.2106067438       18.0857518360  SOLV      2232            0.0000000000
      6668      2196  TIP3      OH2            13.4192164810       29.6307867438       33.1647818360  SOLV      2233            0.0000000000
      6669      2196  TIP3      H1             14.1646964810       30.2191567438       33.0451818360  SOLV      2233            0.0000000000
      6670      2196  TIP3      H2             12.6618964810       30.2127567438       33.2280918360  SOLV      2233            0.0000000000
      6671      2197  TIP3      OH2             1.8617364810       26.9455767438       35.7688418360  SOLV      2234            0.0000000000
      6672      2197  TIP3      H1              2.2698564810       26.0882367438       35.6479018360  SOLV      2234            0.0000000000
      6673      2197  TIP3      H2              1.6014964810       26.9597067438       36.6898718360  SOLV      2234            0.0000000000
      6674      2198  TIP3      OH2             6.5198364810       28.0614367438       20.7871718360  SOLV      2235            0.0000000000
      6675      2198  TIP3      H1              6.0600364810       27.5772667438       21.4730218360  SOLV      2235            0.0000000000
      6676      2198  TIP3      H2              6.7747064810       27.3929767438       20.1512218360  SOLV      2235            0.0000000000
      6677      2199  TIP3      OH2             5.8087664810       25.9541467438       33.1431318360  SOLV      2236            0.0000000000
      6678      2199  TIP3      H1              5.1903764810       26.6288067438       33.4236018360  SOLV      2236            0.0000000000
      6679      2199  TIP3      H2              6.1528864810       26.2755367438       32.3097518360  SOLV      2236            0.0000000000
      6680      2200  TIP3      OH2             7.5908764810       26.3046167438       19.0494918360  SOLV      2237            0.0000000000
      6681      2200  TIP3      H1              7.4103764810       26.1497367438       18.1223218360  SOLV      2237            0.0000000000
      6682      2200  TIP3      H2              8.5409264810       26.4124867438       19.0942818360  SOLV      2237            0.0000000000
      6683      2201  TIP3      OH2            10.8285864810       28.4256767438       36.4206118360  SOLV      2238            0.0000000000
      6684      2201  TIP3      H1             11.7817064810       28.5095867438       36.3932118360  SOLV      2238            0.0000000000
      6685      2201  TIP3      H2             10.6680464810       27.7138567438       37.0401018360  SOLV      2238            0.0000000000
      6686      2202  TIP3      OH2            16.9807064810       28.6590367438       18.4953018360  SOLV      2239            0.0000000000
      6687      2202  TIP3      H1             16.7071864810       28.2345867438       17.6821318360  SOLV      2239            0.0000000000
      6688      2202  TIP3      H2             17.0201164810       29.5904867438       18.2783418360  SOLV      2239            0.0000000000
      6689      2203  TIP3      OH2             6.1481364810       23.3092267438       34.2254418360  SOLV      2240            0.0000000000
      6690      2203  TIP3      H1              6.2982264810       22.5803567438       33.6234118360  SOLV      2240            0.0000000000
      6691      2203  TIP3      H2              6.1503764810       24.0863967438       33.6666618360  SOLV      2240            0.0000000000
      6692      2204  TIP3      OH2             6.5607064810       21.6788067438       31.7181818360  SOLV      2241            0.0000000000
      6693      2204  TIP3      H1              7.0964564810       22.1304767438       31.0661118360  SOLV      2241            0.0000000000
      6694      2204  TIP3      H2              5.7086664810       21.5707867438       31.2955918360  SOLV      2241            0.0000000000
      6695      2205  TIP3      OH2             8.1425464810       27.1184267438       31.9577018360  SOLV      2242            0.0000000000
      6696      2205  TIP3      H1              8.8930264810       26.9621767438       31.3844818360  SOLV      2242            0.0000000000
      6697      2205  TIP3      H2              7.8033764810       27.9700867438       31.6822518360  SOLV      2242            0.0000000000
      6698      2206  TIP3      OH2            12.5581664810       24.9336067438       36.9862318360  SOLV      2243            0.0000000000
      6699      2206  TIP3      H1             12.7502964810       24.0025467438       36.8746818360  SOLV      2243            0.0000000000
      6700      2206  TIP3      H2             13.4157964810       25.3585567438       36.9757718360  SOLV      2243            0.0000000000
      6701      2207  TIP3      OH2            13.8748864810       27.7221267438       35.0635018360  SOLV      2244            0.0000000000
      6702      2207  TIP3      H1             13.5933864810       28.4315867438       34.4858818360  SOLV      2244            0.0000000000
      6703      2207  TIP3      H2             14.8173164810       27.6494267438       34.9126218360  SOLV      2244            0.0000000000
      6704      2208  TIP3      OH2             4.6267664810       24.5075767438       36.1370018360  SOLV      2245            0.0000000000
      6705      2208  TIP3      H1              3.8596664810       23.9750567438       35.9267618360  SOLV      2245            0.0000000000
      6706      2208  TIP3      H2              5.3056664810       24.1976167438       35.5376318360  SOLV      2245            0.0000000000
      6707      2209  TIP3      OH2             7.3662564810       19.1353767438       32.1495418360  SOLV      2246            0.0000000000
      6708      2209  TIP3      H1              7.2682164810       20.0816967438       32.0441618360  SOLV      2246            0.0000000000
      6709      2209  TIP3      H2              6.6238764810       18.7627567438       31.6738918360  SOLV      2246            0.0000000000
      6710      2210  TIP3      OH2             8.6303064810       23.4569167438       35.7133818360  SOLV      2247            0.0000000000
      6711      2210  TIP3      H1              8.3948464810       23.2375867438       36.6148718360  SOLV      2247            0.0000000000
      6712      2210  TIP3      H2              7.8469964810       23.2500367438       35.2036318360  SOLV      2247            0.0000000000
      6713      2211  TIP3      OH2            11.3459664810       22.5842667438       34.7887318360  SOLV      2248            0.0000000000
      6714      2211  TIP3      H1             10.3985064810       22.6162367438       34.9210618360  SOLV      2248            0.0000000000
      6715      2211  TIP3      H2             11.6586364810       21.9589767438       35.4425518360  SOLV      2248            0.0000000000
      6716      2212  TIP3      OH2            12.9801164810       21.2183767438       36.7939218360  SOLV      2249            0.0000000000
      6717      2212  TIP3      H1             12.8832964810       20.2661067438       36.7881118360  SOLV      2249            0.0000000000
      6718      2212  TIP3      H2             12.6584264810       21.4870567438       37.6544718360  SOLV      2249            0.0000000000
      6719      2213  TIP3      OH2             2.8070464810       22.4279567438       35.8414718360  SOLV      2250            0.0000000000
      6720      2213  TIP3      H1              3.0187864810       21.7215667438       35.2312218360  SOLV      2250            0.0000000000
      6721      2213  TIP3      H2              2.6957964810       21.9905567438       36.6855918360  SOLV      2250            0.0000000000
      6722      2214  TIP3      OH2             7.5880664810       18.4291167438       34.8208218360  SOLV      2251            0.0000000000
      6723      2214  TIP3      H1              8.2999064810       17.7893367438       34.8067318360  SOLV      2251            0.0000000000
      6724      2214  TIP3      H2              7.4871064810       18.6959467438       33.9071318360  SOLV      2251            0.0000000000
      6725      2215  TIP3      OH2             7.9418164810       20.1119567438       36.8744518360  SOLV      2252            0.0000000000
      6726      2215  TIP3      H1              7.8100364810       19.6363367438       36.0543018360  SOLV      2252            0.0000000000
      6727      2215  TIP3      H2              7.3425564810       20.8563167438       36.8191618360  SOLV      2252            0.0000000000
      6728      2216  TIP3      OH2             7.4880464810       36.9949867438       20.0508518360  SOLV      2253            0.0000000000
      6729      2216  TIP3      H1              8.4211164810       37.1528567438       20.1946918360  SOLV      2253            0.0000000000
      6730      2216  TIP3      H2              7.2239264810       37.6702867438       19.4260018360  SOLV      2253            0.0000000000
      6731      2217  TIP3      OH2             1.0565364810       31.6313667438       19.5336618360  SOLV      2254            0.0000000000
      6732      2217  TIP3      H1              1.9704564810       31.7102567438       19.8070518360  SOLV      2254            0.0000000000
      6733      2217  TIP3      H2              1.0638464810       30.9443267438       18.8672218360  SOLV      2254            0.0000000000
      6734      2218  TIP3      OH2             0.5755164810       35.1049167438       26.4156718360  SOLV      2255            0.0000000000
      6735      2218  TIP3      H1              0.2411964810       34.2246467438       26.5876918360  SOLV      2255            0.0000000000
      6736      2218  TIP3      H2              0.7977564810       35.4504167438       27.2802318360  SOLV      2255            0.0000000000
      6737      2219  TIP3      OH2            18.1239964810       35.9145567438       29.3961518360  SOLV      2256            0.0000000000
      6738      2219  TIP3      H1             18.1026664810       36.0993967438       30.3350918360  SOLV      2256            0.0000000000
      6739      2219  TIP3      H2             18.8146164810       36.4829567438       29.0552918360  SOLV      2256            0.0000000000
      6740      2220  TIP3      OH2            17.6872864810       35.4816667438       32.3180618360  SOLV      2257            0.0000000000
      6741      2220  TIP3      H1             17.2001564810       34.7460767438       31.9468018360  SOLV      2257            0.0000000000
      6742      2220  TIP3      H2             18.2365564810       35.0880567438       32.9960018360  SOLV      2257            0.0000000000
      6743      2221  TIP3      OH2            16.1380164810       31.2714767438       36.9560918360  SOLV      2258            0.0000000000
      6744      2221  TIP3      H1             15.2721264810       31.1664467438       37.3503218360  SOLV      2258            0.0000000000
      6745      2221  TIP3      H2             16.5146064810       32.0298067438       37.4025618360  SOLV      2258            0.0000000000
      6746      2222  TIP3      OH2            17.4389864810       29.5278467438       22.4703418360  SOLV      2259            0.0000000000
      6747      2222  TIP3      H1             18.2891264810       29.9489367438       22.5975018360  SOLV      2259            0.0000000000
      6748      2222  TIP3      H2             17.4444964810       28.7878567438       23.0774818360  SOLV      2259            0.0000000000
      6749      2223  TIP3      OH2            17.8335464810       27.5815867438       24.2939118360  SOLV      2260            0.0000000000
      6750      2223  TIP3      H1             17.1070064810       27.1018467438       24.6916718360  SOLV      2260            0.0000000000
      6751      2223  TIP3      H2             18.4148764810       27.7870567438       25.0260718360  SOLV      2260            0.0000000000
      6752      2224  TIP3      OH2            17.5926664810       30.3663367438       29.2416718360  SOLV      2261            0.0000000000
      6753      2224  TIP3      H1             18.4260864810       29.9883367438       28.9610318360  SOLV      2261            0.0000000000
      6754      2224  TIP3      H2             17.7046964810       31.3094567438       29.1225818360  SOLV      2261            0.0000000000
      6755      2225  TIP3      OH2            16.0788964810       33.2440867438       31.5485118360  SOLV      2262            0.0000000000
      6756      2225  TIP3      H1             15.4314264810       33.5692367438       32.1740318360  SOLV      2262            0.0000000000
      6757      2225  TIP3      H2             15.5612964810       32.8038567438       30.8743418360  SOLV      2262            0.0000000000
      6758      2226  TIP3      OH2            18.1018564810       27.4824367438       20.6850418360  SOLV      2263            0.0000000000
      6759      2226  TIP3      H1             17.5799664810       27.8388467438       19.9661318360  SOLV      2263            0.0000000000
      6760      2226  TIP3      H2             18.0687764810       28.1572167438       21.3631318360  SOLV      2263            0.0000000000
      6761      2227  TIP3      OH2            16.4507564810       24.7219967438       19.2357518360  SOLV      2264            0.0000000000
      6762      2227  TIP3      H1             16.5471964810       25.3886967438       18.5557218360  SOLV      2264            0.0000000000
      6763      2227  TIP3      H2             16.3107164810       23.9066267438       18.7543018360  SOLV      2264            0.0000000000
      6764      2228  TIP3      OH2            15.6202264810       26.1022367438       24.8567818360  SOLV      2265            0.0000000000
      6765      2228  TIP3      H1             15.4701064810       25.1570967438       24.8365618360  SOLV      2265            0.0000000000
      6766      2228  TIP3      H2             15.2666764810       26.3833767438       25.7006918360  SOLV      2265            0.0000000000
      6767      2229  TIP3      OH2             0.6554664810       28.1804567438       28.8671618360  SOLV      2266            0.0000000000
      6768      2229  TIP3      H1              0.8397564810       28.0986267438       27.9314518360  SOLV      2266            0.0000000000
      6769      2229  TIP3      H2              1.5047564810       28.0561567438       29.2908018360  SOLV      2266            0.0000000000
      6770      2230  TIP3      OH2            16.4765164810       28.0725667438       34.4956118360  SOLV      2267            0.0000000000
      6771      2230  TIP3      H1             17.0592464810       27.3377967438       34.6873318360  SOLV      2267            0.0000000000
      6772      2230  TIP3      H2             17.0404464810       28.8445967438       34.5421918360  SOLV      2267            0.0000000000
      6773      2231  TIP3      OH2            17.9732264810       25.9751467438       35.1801518360  SOLV      2268            0.0000000000
      6774      2231  TIP3      H1             17.1098964810       25.5963567438       35.0146218360  SOLV      2268            0.0000000000
      6775      2231  TIP3      H2             18.5775964810       25.2366267438       35.1057318360  SOLV      2268            0.0000000000
      6776      2232  TIP3      OH2            15.6981364810       22.1299767438       18.3533018360  SOLV      2269            0.0000000000
      6777      2232  TIP3      H1             16.3087164810       21.7586567438       18.9901218360  SOLV      2269            0.0000000000
      6778      2232  TIP3      H2             14.8612864810       21.7086667438       18.5493018360  SOLV      2269            0.0000000000
      6779      2233  TIP3      OH2            15.3307064810       23.6848167438       23.3192918360  SOLV      2270            0.0000000000
      6780      2233  TIP3      H1             15.6104164810       22.7778567438       23.4434618360  SOLV      2270            0.0000000000
      6781      2233  TIP3      H2             16.0898764810       24.1189667438       22.9302118360  SOLV      2270            0.0000000000
      6782      2234  TIP3      OH2            15.9425364810       24.2665567438       28.7551818360  SOLV      2271            0.0000000000
      6783      2234  TIP3      H1             16.8753364810       24.4785467438       28.7207818360  SOLV      2271            0.0000000000
      6784      2234  TIP3      H2             15.7072864810       24.3677667438       29.6774818360  SOLV      2271            0.0000000000
      6785      2235  TIP3      OH2            15.9717264810       25.0030867438       31.5311218360  SOLV      2272            0.0000000000
      6786      2235  TIP3      H1             15.1288564810       25.2711267438       31.8971018360  SOLV      2272            0.0000000000
      6787      2235  TIP3      H2             16.4141564810       25.8252767438       31.3202318360  SOLV      2272            0.0000000000
      6788      2236  TIP3      OH2             0.2529464810       23.4509567438       35.0080418360  SOLV      2273            0.0000000000
      6789      2236  TIP3      H1              1.1724364810       23.3287867438       35.2443518360  SOLV      2273            0.0000000000
      6790      2236  TIP3      H2             -0.1966035190       22.7009267438       35.3973918360  SOLV      2273            0.0000000000
      6791      2237  TIP3      OH2            18.2548864810       18.9831067438       36.8846218360  SOLV      2274            0.0000000000
      6792      2237  TIP3      H1             18.6045864810       18.3294567438       36.2790918360  SOLV      2274            0.0000000000
      6793      2237  TIP3      H2             18.4018364810       19.8205167438       36.4448818360  SOLV      2274            0.0000000000
      6794      2238  TIP3      OH2            15.9441864810       20.9477467438       23.3674918360  SOLV      2275            0.0000000000
      6795      2238  TIP3      H1             16.1266864810       20.4988967438       24.1929918360  SOLV      2275            0.0000000000
      6796      2238  TIP3      H2             15.3444764810       20.3631867438       22.9039518360  SOLV      2275            0.0000000000
      6797      2239  TIP3      OH2             1.4741964810       21.7631167438       27.8993318360  SOLV      2276            0.0000000000
      6798      2239  TIP3      H1              1.9193564810       20.9713667438       28.2013018360  SOLV      2276            0.0000000000
      6799      2239  TIP3      H2              1.9404964810       22.4796367438       28.3298918360  SOLV      2276            0.0000000000
      6800      2240  TIP3      OH2            -0.2217735190       24.7624167438       28.9683518360  SOLV      2277            0.0000000000
      6801      2240  TIP3      H1              0.2702064810       24.5414667438       28.1775518360  SOLV      2277            0.0000000000
      6802      2240  TIP3      H2              0.1403164810       25.6027567438       29.2493018360  SOLV      2277            0.0000000000
      6803      2241  TIP3      OH2            17.7746064810       21.0925667438       35.2337518360  SOLV      2278            0.0000000000
      6804      2241  TIP3      H1             16.8571764810       21.3632767438       35.1981018360  SOLV      2278            0.0000000000
      6805      2241  TIP3      H2             17.8975464810       20.5574067438       34.4497218360  SOLV      2278            0.0000000000
      6806      2242  TIP3      OH2            17.8108064810       21.0155567438       19.8955218360  SOLV      2279            0.0000000000
      6807      2242  TIP3      H1             18.2230664810       20.2941267438       19.4203218360  SOLV      2279            0.0000000000
      6808      2242  TIP3      H2             18.4924564810       21.6850167438       19.9539518360  SOLV      2279            0.0000000000
      6809      2243  TIP3      OH2            14.8625964810       36.0044967438       24.9683318360  SOLV      2280            0.0000000000
      6810      2243  TIP3      H1             15.5148864810       35.6567067438       24.3602418360  SOLV      2280            0.0000000000
      6811      2243  TIP3      H2             15.3729764810       36.4928167438       25.6143018360  SOLV      2280            0.0000000000
      6812      2244  TIP3      OH2             2.2473464810       32.9336367438       35.5114218360  SOLV      2281            0.0000000000
      6813      2244  TIP3      H1              1.4265964810       33.1082867438       35.0508918360  SOLV      2281            0.0000000000
      6814      2244  TIP3      H2              1.9951264810       32.8601067438       36.4318618360  SOLV      2281            0.0000000000
      6815      2245  TIP3      OH2             5.2016364810       33.9077567438       31.7698218360  SOLV      2282            0.0000000000
      6816      2245  TIP3      H1              4.7767464810       34.7176067438       31.4872818360  SOLV      2282            0.0000000000
      6817      2245  TIP3      H2              6.1059164810       33.9931667438       31.4678018360  SOLV      2282            0.0000000000
      6818      2246  TIP3      OH2             9.5127764810       35.3067567438       34.7291918360  SOLV      2283            0.0000000000
      6819      2246  TIP3      H1              9.6975264810       34.9733667438       35.6072218360  SOLV      2283            0.0000000000
      6820      2246  TIP3      H2             10.3592264810       35.6166167438       34.4071118360  SOLV      2283            0.0000000000
      6821      2247  TIP3      OH2            11.8578164810       36.5926467438       33.9733318360  SOLV      2284            0.0000000000
      6822      2247  TIP3      H1             12.5347064810       35.9598767438       33.7332518360  SOLV      2284            0.0000000000
      6823      2247  TIP3      H2             12.1796964810       36.9936967438       34.7806618360  SOLV      2284            0.0000000000
      6824      2248  TIP3      OH2            16.7751964810       19.1821967438       33.0528318360  SOLV      2285            0.0000000000
      6825      2248  TIP3      H1             15.9625464810       19.5072267438       32.6653018360  SOLV      2285            0.0000000000
      6826      2248  TIP3      H2             17.0080464810       18.4220467438       32.5197418360  SOLV      2285            0.0000000000
      6827      2249  TIP3      OH2             2.6033064810       37.1641467438       31.8173518360  SOLV      2286            0.0000000000
      6828      2249  TIP3      H1              1.8829464810       37.6042467438       31.3661218360  SOLV      2286            0.0000000000
      6829      2249  TIP3      H2              2.2377064810       36.9136167438       32.6657518360  SOLV      2286            0.0000000000
      6830      2250  TIP3      OH2             5.0705664810       36.7645367438       30.8470718360  SOLV      2287            0.0000000000
      6831      2250  TIP3      H1              4.2057864810       36.8363867438       31.2510818360  SOLV      2287            0.0000000000
      6832      2250  TIP3      H2              5.0154664810       37.3112667438       30.0633218360  SOLV      2287            0.0000000000
      6833      2251  TIP3      OH2             9.7811264810       36.6524267438       30.0226718360  SOLV      2288            0.0000000000
      6834      2251  TIP3      H1              9.3245264810       37.1813967438       29.3685118360  SOLV      2288            0.0000000000
      6835      2251  TIP3      H2              9.9439264810       37.2555667438       30.7479018360  SOLV      2288            0.0000000000
      6836      2252  TIP3      OH2            12.1087564810       35.5303867438       30.9677018360  SOLV      2289            0.0000000000
      6837      2252  TIP3      H1             11.2041264810       35.6954067438       30.7019118360  SOLV      2289            0.0000000000
      6838      2252  TIP3      H2             12.5376164810       36.3836067438       30.9020418360  SOLV      2289            0.0000000000
      6839      2253  TIP3      OH2            14.7129464810       37.1002967438       31.2624818360  SOLV      2290            0.0000000000
      6840      2253  TIP3      H1             14.5311464810       38.0161867438       31.0519718360  SOLV      2290            0.0000000000
      6841      2253  TIP3      H2             14.8897264810       36.6900067438       30.4159418360  SOLV      2290            0.0000000000
      6842      2254  TIP3      OH2             2.0181164810       35.7873967438       28.7275318360  SOLV      2291            0.0000000000
      6843      2254  TIP3      H1              1.9997164810       35.3619067438       29.5847618360  SOLV      2291            0.0000000000
      6844      2254  TIP3      H2              2.8229064810       35.4688967438       28.3187518360  SOLV      2291            0.0000000000
      6845      2255  TIP3      OH2             4.1594264810       34.4972667438       27.3825218360  SOLV      2292            0.0000000000
      6846      2255  TIP3      H1              3.9404964810       33.5810067438       27.5521218360  SOLV      2292            0.0000000000
      6847      2255  TIP3      H2              4.9836464810       34.6373067438       27.8486618360  SOLV      2292            0.0000000000
      6848      2256  TIP3      OH2             6.6966764810       34.9671967438       28.2313218360  SOLV      2293            0.0000000000
      6849      2256  TIP3      H1              6.9092464810       34.0790967438       27.9444118360  SOLV      2293            0.0000000000
      6850      2256  TIP3      H2              6.7611864810       34.9329667438       29.1857218360  SOLV      2293            0.0000000000
      6851      2257  TIP3      OH2            10.2050464810       20.6312567438       27.3756518360  SOLV      2294            0.0000000000
      6852      2257  TIP3      H1              9.5307264810       20.0018167438       27.6312318360  SOLV      2294            0.0000000000
      6853      2257  TIP3      H2             10.7689664810       20.1471467438       26.7724418360  SOLV      2294            0.0000000000
      6854      2258  TIP3      OH2            15.3477664810       18.7386567438       27.4883618360  SOLV      2295            0.0000000000
      6855      2258  TIP3      H1             15.9515264810       19.2861967438       26.9864618360  SOLV      2295            0.0000000000
      6856      2258  TIP3      H2             14.4779664810       19.0576967438       27.2477718360  SOLV      2295            0.0000000000
      6857      2259  TIP3      OH2            17.0748064810       19.8775267438       25.8214518360  SOLV      2296            0.0000000000
      6858      2259  TIP3      H1             17.6865564810       19.3630967438       25.2948118360  SOLV      2296            0.0000000000
      6859      2259  TIP3      H2             17.4571464810       20.7547367438       25.8448918360  SOLV      2296            0.0000000000
      6860      2260  TIP3      OH2             2.5317964810       19.2652867438       25.1976418360  SOLV      2297            0.0000000000
      6861      2260  TIP3      H1              1.7547764810       19.0307767438       24.6902318360  SOLV      2297            0.0000000000
      6862      2260  TIP3      H2              3.0621564810       18.4684967438       25.2064418360  SOLV      2297            0.0000000000
      6863      2261  TIP3      OH2             1.3681364810       19.0630967438       21.0012518360  SOLV      2298            0.0000000000
      6864      2261  TIP3      H1              1.8072064810       19.6741467438       20.4096018360  SOLV      2298            0.0000000000
      6865      2261  TIP3      H2              0.7343764810       19.6015067438       21.4752518360  SOLV      2298            0.0000000000
      6866      2262  TIP3      OH2             7.1110564810       19.1919967438       25.0109518360  SOLV      2299            0.0000000000
      6867      2262  TIP3      H1              7.9853964810       19.5804267438       24.9813818360  SOLV      2299            0.0000000000
      6868      2262  TIP3      H2              6.9751364810       18.9767767438       25.9336718360  SOLV      2299            0.0000000000
      6869      2263  TIP3      OH2            12.6678964810       19.2219767438       26.6601218360  SOLV      2300            0.0000000000
      6870      2263  TIP3      H1             12.7440564810       19.3171367438       25.7107218360  SOLV      2300            0.0000000000
      6871      2263  TIP3      H2             12.3928164810       18.3142667438       26.7890318360  SOLV      2300            0.0000000000
      6872      2264  TIP3      OH2            14.0211564810       19.2477567438       22.3526218360  SOLV      2301            0.0000000000
      6873      2264  TIP3      H1             13.3182664810       19.8626767438       22.1427618360  SOLV      2301            0.0000000000
      6874      2264  TIP3      H2             13.5762964810       18.4104267438       22.4837118360  SOLV      2301            0.0000000000
      6875      2265  TIP3      OH2             1.2690864810       35.0113167438       21.8987618360  SOLV      2302            0.0000000000
      6876      2265  TIP3      H1              0.5840764810       34.9732067438       21.2312718360  SOLV      2302            0.0000000000
      6877      2265  TIP3      H2              1.2728064810       35.9240767438       22.1869718360  SOLV      2302            0.0000000000
      6878      2266  TIP3      OH2             3.2290464810       20.9792467438       19.4436618360  SOLV      2303            0.0000000000
      6879      2266  TIP3      H1              3.7203864810       20.3494867438       18.9162118360  SOLV      2303            0.0000000000
      6880      2266  TIP3      H2              3.8526764810       21.2751867438       20.1067818360  SOLV      2303            0.0000000000
      6881      2267  TIP3      OH2             8.2550564810       21.2723967438       21.9007118360  SOLV      2304            0.0000000000
      6882      2267  TIP3      H1              8.4331864810       20.6257167438       22.5835718360  SOLV      2304            0.0000000000
      6883      2267  TIP3      H2              8.2016764810       22.1061667438       22.3678218360  SOLV      2304            0.0000000000
      6884      2268  TIP3      OH2            10.1334364810       36.2208067438       20.2963818360  SOLV      2305            0.0000000000
      6885      2268  TIP3      H1             10.9994564810       36.5875467438       20.1182018360  SOLV      2305            0.0000000000
      6886      2268  TIP3      H2              9.8867164810       35.7816067438       19.4824618360  SOLV      2305            0.0000000000
      6887      2269  TIP3      OH2            16.8423964810       35.7838367438       22.9754918360  SOLV      2306            0.0000000000
      6888      2269  TIP3      H1             16.6481064810       35.0360467438       22.4104518360  SOLV      2306            0.0000000000
      6889      2269  TIP3      H2             16.8034064810       36.5418467438       22.3922818360  SOLV      2306            0.0000000000
      6890      2270  TIP3      OH2             2.4895964810       19.7794767438       34.7152618360  SOLV      2307            0.0000000000
      6891      2270  TIP3      H1              2.1234164810       19.0137367438       35.1577318360  SOLV      2307            0.0000000000
      6892      2270  TIP3      H2              3.4024464810       19.8084967438       35.0017718360  SOLV      2307            0.0000000000
      6893      2271  TIP3      OH2             4.4626764810       19.1299167438       36.2509718360  SOLV      2308            0.0000000000
      6894      2271  TIP3      H1              5.3610364810       18.8559367438       36.0663118360  SOLV      2308            0.0000000000
      6895      2271  TIP3      H2              4.0759864810       18.3875167438       36.7152318360  SOLV      2308            0.0000000000
      6896      2272  TIP3      OH2             3.0872064810       35.9313967438       18.9239718360  SOLV      2309            0.0000000000
      6897      2272  TIP3      H1              2.8196664810       36.2176867438       19.7972818360  SOLV      2309            0.0000000000
      6898      2272  TIP3      H2              3.8584664810       35.3853167438       19.0762218360  SOLV      2309            0.0000000000
      6899      2273  TIP3      OH2            12.8839064810       18.4624467438       36.4332518360  SOLV      2310            0.0000000000
      6900      2273  TIP3      H1             12.9606264810       18.0365167438       37.2870218360  SOLV      2310            0.0000000000
      6901      2273  TIP3      H2             13.7775664810       18.4759167438       36.0906018360  SOLV      2310            0.0000000000
      6902      2274  TIP3      OH2            16.0600164810       34.5350767438       35.1256718360  SOLV      2311            0.0000000000
      6903      2274  TIP3      H1             15.2782064810       34.3488767438       34.6057318360  SOLV      2311            0.0000000000
      6904      2274  TIP3      H2             15.9880064810       35.4645067438       35.3429218360  SOLV      2311            0.0000000000
      6905      2275  TIP3      OH2            30.1100564810       28.4215167438       25.1563918360  SOLV      2312            0.0000000000
      6906      2275  TIP3      H1             30.1991664810       29.3653367438       25.0241018360  SOLV      2312            0.0000000000
      6907      2275  TIP3      H2             29.4718164810       28.1461567438       24.4983318360  SOLV      2312            0.0000000000
      6908      2276  TIP3      OH2            29.0431864810       27.6765867438       28.5752118360  SOLV      2313            0.0000000000
      6909      2276  TIP3      H1             29.0049364810       27.0302167438       29.2801718360  SOLV      2313            0.0000000000
      6910      2276  TIP3      H2             28.7208364810       27.2100267438       27.8040818360  SOLV      2313            0.0000000000
      6911      2277  TIP3      OH2            21.4116864810       27.2907967438       30.1682018360  SOLV      2314            0.0000000000
      6912      2277  TIP3      H1             21.4528964810       26.6651267438       30.8914418360  SOLV      2314            0.0000000000
      6913      2277  TIP3      H2             22.1144564810       27.9146567438       30.3502418360  SOLV      2314            0.0000000000
      6914      2278  TIP3      OH2            32.7492064810       30.6156267438       26.8767218360  SOLV      2315            0.0000000000
      6915      2278  TIP3      H1             32.3084764810       29.8952267438       27.3272818360  SOLV      2315            0.0000000000
      6916      2278  TIP3      H2             32.7361764810       31.3363467438       27.5064918360  SOLV      2315            0.0000000000
      6917      2279  TIP3      OH2            22.3349964810       31.7406867438       28.7031118360  SOLV      2316            0.0000000000
      6918      2279  TIP3      H1             21.9655164810       30.9387367438       28.3335418360  SOLV      2316            0.0000000000
      6919      2279  TIP3      H2             23.2761064810       31.5721767438       28.7494518360  SOLV      2316            0.0000000000
      6920      2280  TIP3      OH2            18.9450464810       25.4009467438       24.0959918360  SOLV      2317            0.0000000000
      6921      2280  TIP3      H1             18.4973864810       26.2468167438       24.0776418360  SOLV      2317            0.0000000000
      6922      2280  TIP3      H2             18.3841664810       24.8213667438       23.5805018360  SOLV      2317            0.0000000000
      6923      2281  TIP3      OH2            19.6556564810       27.5629067438       26.2217918360  SOLV      2318            0.0000000000
      6924      2281  TIP3      H1             19.8690064810       26.7930667438       26.7490918360  SOLV      2318            0.0000000000
      6925      2281  TIP3      H2             20.3934164810       27.6525767438       25.6185518360  SOLV      2318            0.0000000000
      6926      2282  TIP3      OH2            29.8607564810       35.7197967438       27.0887618360  SOLV      2319            0.0000000000
      6927      2282  TIP3      H1             30.4803964810       35.0432667438       26.8156818360  SOLV      2319            0.0000000000
      6928      2282  TIP3      H2             29.6524964810       35.5018767438       27.9972518360  SOLV      2319            0.0000000000
      6929      2283  TIP3      OH2            27.4326264810       30.1087267438       28.9813118360  SOLV      2320            0.0000000000
      6930      2283  TIP3      H1             27.7364164810       29.4228667438       28.3867218360  SOLV      2320            0.0000000000
      6931      2283  TIP3      H2             28.1540264810       30.2275967438       29.5991118360  SOLV      2320            0.0000000000
      6932      2284  TIP3      OH2            36.0956064810       21.7102567438       29.8419318360  SOLV      2321            0.0000000000
      6933      2284  TIP3      H1             36.1448264810       22.3203767438       30.5778418360  SOLV      2321            0.0000000000
      6934      2284  TIP3      H2             36.5211164810       22.1713467438       29.1190418360  SOLV      2321            0.0000000000
      6935      2285  TIP3      OH2            30.5733264810       24.5029667438       29.3087918360  SOLV      2322            0.0000000000
      6936      2285  TIP3      H1             30.7159164810       23.5566667438       29.3289518360  SOLV      2322            0.0000000000
      6937      2285  TIP3      H2             30.4672264810       24.7099467438       28.3802818360  SOLV      2322            0.0000000000
      6938      2286  TIP3      OH2            23.7281564810       22.6046067438       26.5812718360  SOLV      2323            0.0000000000
      6939      2286  TIP3      H1             23.7712664810       23.4644567438       26.1629018360  SOLV      2323            0.0000000000
      6940      2286  TIP3      H2             23.2705664810       22.0520767438       25.9475918360  SOLV      2323            0.0000000000
      6941      2287  TIP3      OH2            31.4504264810       22.7351667438       24.9821018360  SOLV      2324            0.0000000000
      6942      2287  TIP3      H1             32.0968564810       22.4064867438       25.6068618360  SOLV      2324            0.0000000000
      6943      2287  TIP3      H2             31.9603664810       23.2530667438       24.3592418360  SOLV      2324            0.0000000000
      6944      2288  TIP3      OH2            20.3483064810       25.0011867438       27.3434118360  SOLV      2325            0.0000000000
      6945      2288  TIP3      H1             21.0019664810       24.4513567438       27.7754218360  SOLV      2325            0.0000000000
      6946      2288  TIP3      H2             20.3722364810       24.7270867438       26.4266118360  SOLV      2325            0.0000000000
      6947      2289  TIP3      OH2            25.5047564810       26.5513167438       26.5585618360  SOLV      2326            0.0000000000
      6948      2289  TIP3      H1             26.1208564810       26.0248567438       27.0679618360  SOLV      2326            0.0000000000
      6949      2289  TIP3      H2             24.9186364810       25.9111867438       26.1549218360  SOLV      2326            0.0000000000
      6950      2290  TIP3      OH2            36.4870664810       23.1881767438       32.0779118360  SOLV      2327            0.0000000000
      6951      2290  TIP3      H1             35.7985264810       23.8462467438       31.9825718360  SOLV      2327            0.0000000000
      6952      2290  TIP3      H2             36.5025264810       22.9909667438       33.0144518360  SOLV      2327            0.0000000000
      6953      2291  TIP3      OH2            22.5383464810       21.5224467438       30.6553518360  SOLV      2328            0.0000000000
      6954      2291  TIP3      H1             22.3195164810       22.0525067438       29.8889518360  SOLV      2328            0.0000000000
      6955      2291  TIP3      H2             21.8704364810       21.7489967438       31.3024918360  SOLV      2328            0.0000000000
      6956      2292  TIP3      OH2            29.9073264810       31.0225567438       24.1992618360  SOLV      2329            0.0000000000
      6957      2292  TIP3      H1             29.6118364810       30.6997867438       23.3479518360  SOLV      2329            0.0000000000
      6958      2292  TIP3      H2             29.5831064810       31.9222267438       24.2405218360  SOLV      2329            0.0000000000
      6959      2293  TIP3      OH2            25.1074864810       29.1980167438       30.9427218360  SOLV      2330            0.0000000000
      6960      2293  TIP3      H1             24.3673964810       29.7961667438       31.0462418360  SOLV      2330            0.0000000000
      6961      2293  TIP3      H2             25.8214364810       29.7519767438       30.6270818360  SOLV      2330            0.0000000000
      6962      2294  TIP3      OH2            33.2142664810       22.0260967438       26.9626918360  SOLV      2331            0.0000000000
      6963      2294  TIP3      H1             32.9990664810       21.2604367438       27.4952918360  SOLV      2331            0.0000000000
      6964      2294  TIP3      H2             33.8700064810       22.4985567438       27.4755418360  SOLV      2331            0.0000000000
      6965      2295  TIP3      OH2            22.1320764810       23.4146267438       28.6075718360  SOLV      2332            0.0000000000
      6966      2295  TIP3      H1             22.7457064810       24.0473867438       28.9808118360  SOLV      2332            0.0000000000
      6967      2295  TIP3      H2             22.6441464810       22.9421267438       27.9512618360  SOLV      2332            0.0000000000
      6968      2296  TIP3      OH2            23.5149164810       31.1623167438       31.7298718360  SOLV      2333            0.0000000000
      6969      2296  TIP3      H1             23.5096764810       32.0416667438       31.3518018360  SOLV      2333            0.0000000000
      6970      2296  TIP3      H2             22.6613264810       31.0787267438       32.1548618360  SOLV      2333            0.0000000000
      6971      2297  TIP3      OH2            19.6360064810       30.8331067438       22.5118018360  SOLV      2334            0.0000000000
      6972      2297  TIP3      H1             19.3640964810       31.0622067438       21.6230918360  SOLV      2334            0.0000000000
      6973      2297  TIP3      H2             19.6815764810       31.6709867438       22.9723318360  SOLV      2334            0.0000000000
      6974      2298  TIP3      OH2            33.2609764810       32.4546967438       29.2246518360  SOLV      2335            0.0000000000
      6975      2298  TIP3      H1             32.3193464810       32.5130867438       29.3863418360  SOLV      2335            0.0000000000
      6976      2298  TIP3      H2             33.5375864810       33.3607467438       29.0876218360  SOLV      2335            0.0000000000
      6977      2299  TIP3      OH2            33.5616764810       20.7412267438       30.6420418360  SOLV      2336            0.0000000000
      6978      2299  TIP3      H1             32.8255964810       21.3519367438       30.6041718360  SOLV      2336            0.0000000000
      6979      2299  TIP3      H2             34.2450764810       21.1561267438       30.1156818360  SOLV      2336            0.0000000000
      6980      2300  TIP3      OH2            26.5648164810       18.8279567438       28.1078418360  SOLV      2337            0.0000000000
      6981      2300  TIP3      H1             26.4472364810       17.8795567438       28.0536718360  SOLV      2337            0.0000000000
      6982      2300  TIP3      H2             25.7098264810       19.1605667438       28.3809518360  SOLV      2337            0.0000000000
      6983      2301  TIP3      OH2            31.5130964810       34.2360467438       25.8498118360  SOLV      2338            0.0000000000
      6984      2301  TIP3      H1             31.9383264810       33.5288367438       25.3647718360  SOLV      2338            0.0000000000
      6985      2301  TIP3      H2             31.8300964810       35.0373167438       25.4330318360  SOLV      2338            0.0000000000
      6986      2302  TIP3      OH2            32.6727464810       32.1368967438       24.3584718360  SOLV      2339            0.0000000000
      6987      2302  TIP3      H1             32.4152264810       31.4469067438       23.7470618360  SOLV      2339            0.0000000000
      6988      2302  TIP3      H2             32.7438264810       31.6940167438       25.2040618360  SOLV      2339            0.0000000000
      6989      2303  TIP3      OH2            34.3587664810       30.7035667438       32.8358218360  SOLV      2340            0.0000000000
      6990      2303  TIP3      H1             34.4983964810       30.1118167438       32.0965218360  SOLV      2340            0.0000000000
      6991      2303  TIP3      H2             34.5260464810       31.5761567438       32.4797018360  SOLV      2340            0.0000000000
      6992      2304  TIP3      OH2            28.8313064810       27.6655167438       22.6084218360  SOLV      2341            0.0000000000
      6993      2304  TIP3      H1             28.1198564810       28.2004867438       22.2564718360  SOLV      2341            0.0000000000
      6994      2304  TIP3      H2             29.5222664810       27.7207267438       21.9483118360  SOLV      2341            0.0000000000
      6995      2305  TIP3      OH2            28.8852264810       26.1229467438       19.6469218360  SOLV      2342            0.0000000000
      6996      2305  TIP3      H1             29.5862164810       26.1456367438       20.2983218360  SOLV      2342            0.0000000000
      6997      2305  TIP3      H2             29.1875164810       25.4949167438       18.9908518360  SOLV      2342            0.0000000000
      6998      2306  TIP3      OH2            36.2006964810       27.0433667438       30.9018618360  SOLV      2343            0.0000000000
      6999      2306  TIP3      H1             35.5481064810       27.7379267438       30.9909518360  SOLV      2343            0.0000000000
      7000      2306  TIP3      H2             36.6657264810       27.2534567438       30.0920218360  SOLV      2343            0.0000000000
      7001      2307  TIP3      OH2            32.2370764810       27.8748467438       23.5600118360  SOLV      2344            0.0000000000
      7002      2307  TIP3      H1             31.5051764810       28.1032167438       24.1330718360  SOLV      2344            0.0000000000
      7003      2307  TIP3      H2             32.6842964810       27.1611167438       24.0147618360  SOLV      2344            0.0000000000
      7004      2308  TIP3      OH2            32.1344264810       26.0491067438       32.6277118360  SOLV      2345            0.0000000000
      7005      2308  TIP3      H1             32.2143364810       26.8125467438       33.1995618360  SOLV      2345            0.0000000000
      7006      2308  TIP3      H2             31.5331964810       26.3283467438       31.9372218360  SOLV      2345            0.0000000000
      7007      2309  TIP3      OH2            23.8824464810       28.5054667438       25.4425118360  SOLV      2346            0.0000000000
      7008      2309  TIP3      H1             23.5519664810       28.1348067438       24.6242118360  SOLV      2346            0.0000000000
      7009      2309  TIP3      H2             24.4708564810       27.8348667438       25.7893418360  SOLV      2346            0.0000000000
      7010      2310  TIP3      OH2            25.2491964810       31.9335267438       28.1237318360  SOLV      2347            0.0000000000
      7011      2310  TIP3      H1             25.1543264810       31.3548367438       27.3671918360  SOLV      2347            0.0000000000
      7012      2310  TIP3      H2             25.9785564810       31.5620967438       28.6200118360  SOLV      2347            0.0000000000
      7013      2311  TIP3      OH2            24.2489964810       27.2740267438       29.0760118360  SOLV      2348            0.0000000000
      7014      2311  TIP3      H1             24.8142464810       27.3954467438       28.3131318360  SOLV      2348            0.0000000000
      7015      2311  TIP3      H2             24.5678864810       27.9115267438       29.7148618360  SOLV      2348            0.0000000000
      7016      2312  TIP3      OH2            30.5582164810       32.7772167438       29.8100618360  SOLV      2349            0.0000000000
      7017      2312  TIP3      H1             30.3178764810       33.4395267438       30.4579818360  SOLV      2349            0.0000000000
      7018      2312  TIP3      H2             30.3600364810       31.9427367438       30.2350218360  SOLV      2349            0.0000000000
      7019      2313  TIP3      OH2            25.1290664810       31.6732967438       33.7932018360  SOLV      2350            0.0000000000
      7020      2313  TIP3      H1             24.8178164810       32.4556167438       34.2485218360  SOLV      2350            0.0000000000
      7021      2313  TIP3      H2             24.4790864810       31.5202067438       33.1074018360  SOLV      2350            0.0000000000
      7022      2314  TIP3      OH2            31.1080264810       27.0371367438       21.2451318360  SOLV      2351            0.0000000000
      7023      2314  TIP3      H1             31.6875764810       27.1871667438       21.9920218360  SOLV      2351            0.0000000000
      7024      2314  TIP3      H2             31.5220264810       27.5078767438       20.5217718360  SOLV      2351            0.0000000000
      7025      2315  TIP3      OH2            22.0490564810       27.8714067438       33.0217718360  SOLV      2352            0.0000000000
      7026      2315  TIP3      H1             22.1193764810       28.5220867438       33.7202718360  SOLV      2352            0.0000000000
      7027      2315  TIP3      H2             21.1582764810       27.9741567438       32.6868618360  SOLV      2352            0.0000000000
      7028      2316  TIP3      OH2            28.8345164810       33.7739867438       24.6804418360  SOLV      2353            0.0000000000
      7029      2316  TIP3      H1             29.3082764810       34.0696167438       25.4578618360  SOLV      2353            0.0000000000
      7030      2316  TIP3      H2             28.2714464810       34.5121467438       24.4474018360  SOLV      2353            0.0000000000
      7031      2317  TIP3      OH2            23.3686564810       33.7447967438       34.5565818360  SOLV      2354            0.0000000000
      7032      2317  TIP3      H1             23.3761864810       33.6087667438       33.6091318360  SOLV      2354            0.0000000000
      7033      2317  TIP3      H2             22.4526964810       33.6276067438       34.8085818360  SOLV      2354            0.0000000000
      7034      2318  TIP3      OH2            34.8068664810       18.7871767438       21.0581018360  SOLV      2355            0.0000000000
      7035      2318  TIP3      H1             33.9069364810       18.9260767438       21.3531618360  SOLV      2355            0.0000000000
      7036      2318  TIP3      H2             35.0587064810       19.6186367438       20.6562718360  SOLV      2355            0.0000000000
      7037      2319  TIP3      OH2            22.8727164810       27.5748967438       23.0317918360  SOLV      2356            0.0000000000
      7038      2319  TIP3      H1             22.5808464810       28.3430667438       22.5409218360  SOLV      2356            0.0000000000
      7039      2319  TIP3      H2             22.1982364810       26.9155167438       22.8689318360  SOLV      2356            0.0000000000
      7040      2320  TIP3      OH2            35.9960064810       33.1534167438       19.4344918360  SOLV      2357            0.0000000000
      7041      2320  TIP3      H1             36.0693564810       34.0924367438       19.6050218360  SOLV      2357            0.0000000000
      7042      2320  TIP3      H2             36.9015164810       32.8482767438       19.3782218360  SOLV      2357            0.0000000000
      7043      2321  TIP3      OH2            18.9657264810       29.9378167438       31.8467718360  SOLV      2358            0.0000000000
      7044      2321  TIP3      H1             18.4645664810       29.9097567438       31.0317418360  SOLV      2358            0.0000000000
      7045      2321  TIP3      H2             18.9710964810       29.0321367438       32.1565018360  SOLV      2358            0.0000000000
      7046      2322  TIP3      OH2            18.7159964810       32.7181967438       28.7307918360  SOLV      2359            0.0000000000
      7047      2322  TIP3      H1             19.6620564810       32.5738967438       28.7117418360  SOLV      2359            0.0000000000
      7048      2322  TIP3      H2             18.6036264810       33.5024767438       29.2679118360  SOLV      2359            0.0000000000
      7049      2323  TIP3      OH2            36.9138464810       33.3841667438       34.4131618360  SOLV      2360            0.0000000000
      7050      2323  TIP3      H1             36.8645264810       32.4289767438       34.3759218360  SOLV      2360            0.0000000000
      7051      2323  TIP3      H2             36.0870764810       33.6516967438       34.8145418360  SOLV      2360            0.0000000000
      7052      2324  TIP3      OH2            27.8922464810       32.9580867438       33.2893018360  SOLV      2361            0.0000000000
      7053      2324  TIP3      H1             27.9797064810       33.7845467438       33.7642118360  SOLV      2361            0.0000000000
      7054      2324  TIP3      H2             27.0287564810       32.6284667438       33.5382318360  SOLV      2361            0.0000000000
      7055      2325  TIP3      OH2            28.3068264810       36.7304567438       23.0953618360  SOLV      2362            0.0000000000
      7056      2325  TIP3      H1             28.2314264810       36.6091767438       22.1488818360  SOLV      2362            0.0000000000
      7057      2325  TIP3      H2             28.3396964810       37.6797267438       23.2138218360  SOLV      2362            0.0000000000
      7058      2326  TIP3      OH2            21.9602064810       35.5191567438       24.8762618360  SOLV      2363            0.0000000000
      7059      2326  TIP3      H1             22.1122464810       35.1711967438       25.7549118360  SOLV      2363            0.0000000000
      7060      2326  TIP3      H2             21.1092464810       35.1628867438       24.6209818360  SOLV      2363            0.0000000000
      7061      2327  TIP3      OH2            31.4084264810       35.8844767438       20.0976018360  SOLV      2364            0.0000000000
      7062      2327  TIP3      H1             31.7832664810       35.1400867438       19.6268618360  SOLV      2364            0.0000000000
      7063      2327  TIP3      H2             31.4127964810       35.6145367438       21.0159318360  SOLV      2364            0.0000000000
      7064      2328  TIP3      OH2            31.0772364810       35.8101867438       22.8468218360  SOLV      2365            0.0000000000
      7065      2328  TIP3      H1             30.1422164810       35.9103767438       23.0255218360  SOLV      2365            0.0000000000
      7066      2328  TIP3      H2             31.3574264810       35.1007867438       23.4251418360  SOLV      2365            0.0000000000
      7067      2329  TIP3      OH2            34.0658264810       24.8774167438       34.8933818360  SOLV      2366            0.0000000000
      7068      2329  TIP3      H1             33.6585064810       25.3579767438       34.1727118360  SOLV      2366            0.0000000000
      7069      2329  TIP3      H2             34.1063964810       23.9720167438       34.5854618360  SOLV      2366            0.0000000000
      7070      2330  TIP3      OH2            21.2147764810       31.2613567438       32.8900518360  SOLV      2367            0.0000000000
      7071      2330  TIP3      H1             21.4309064810       30.8999167438       33.7496318360  SOLV      2367            0.0000000000
      7072      2330  TIP3      H2             20.3592464810       30.8867367438       32.6804018360  SOLV      2367            0.0000000000
      7073      2331  TIP3      OH2            23.8335764810       19.7314067438       28.8854718360  SOLV      2368            0.0000000000
      7074      2331  TIP3      H1             22.9719464810       19.6442267438       28.4777618360  SOLV      2368            0.0000000000
      7075      2331  TIP3      H2             23.8111464810       20.5874167438       29.3132318360  SOLV      2368            0.0000000000
      7076      2332  TIP3      OH2            28.4963564810       19.4534467438       32.2601718360  SOLV      2369            0.0000000000
      7077      2332  TIP3      H1             28.9166664810       19.0381567438       33.0132318360  SOLV      2369            0.0000000000
      7078      2332  TIP3      H2             27.5633164810       19.2747767438       32.3773718360  SOLV      2369            0.0000000000
      7079      2333  TIP3      OH2            31.8228464810       23.2089667438       33.1136218360  SOLV      2370            0.0000000000
      7080      2333  TIP3      H1             31.3087964810       23.0831867438       33.9112218360  SOLV      2370            0.0000000000
      7081      2333  TIP3      H2             31.6673164810       24.1212767438       32.8692418360  SOLV      2370            0.0000000000
      7082      2334  TIP3      OH2            32.5853364810       28.0699667438       18.8749218360  SOLV      2371            0.0000000000
      7083      2334  TIP3      H1             32.6274164810       27.8473567438       17.9449218360  SOLV      2371            0.0000000000
      7084      2334  TIP3      H2             33.4345464810       28.4686767438       19.0649118360  SOLV      2371            0.0000000000
      7085      2335  TIP3      OH2            28.1580864810       21.9457867438       19.5452518360  SOLV      2372            0.0000000000
      7086      2335  TIP3      H1             27.9045664810       21.9649467438       20.4680618360  SOLV      2372            0.0000000000
      7087      2335  TIP3      H2             27.9012964810       21.0743267438       19.2438718360  SOLV      2372            0.0000000000
      7088      2336  TIP3      OH2            23.9245864810       24.6968567438       29.9804918360  SOLV      2373            0.0000000000
      7089      2336  TIP3      H1             23.2827964810       24.6565867438       30.6895018360  SOLV      2373            0.0000000000
      7090      2336  TIP3      H2             23.9617864810       25.6233267438       29.7427918360  SOLV      2373            0.0000000000
      7091      2337  TIP3      OH2            23.9214964810       24.9178667438       24.8924918360  SOLV      2374            0.0000000000
      7092      2337  TIP3      H1             23.0287864810       24.5774767438       24.8338718360  SOLV      2374            0.0000000000
      7093      2337  TIP3      H2             24.3721564810       24.5409567438       24.1368118360  SOLV      2374            0.0000000000
      7094      2338  TIP3      OH2            29.4570464810       25.3338967438       23.7095718360  SOLV      2375            0.0000000000
      7095      2338  TIP3      H1             29.0480764810       26.1487567438       23.4180518360  SOLV      2375            0.0000000000
      7096      2338  TIP3      H2             30.1776664810       25.1939067438       23.0952818360  SOLV      2375            0.0000000000
      7097      2339  TIP3      OH2            28.5592064810       25.5095367438       35.1976418360  SOLV      2376            0.0000000000
      7098      2339  TIP3      H1             27.9965864810       24.8046967438       35.5184218360  SOLV      2376            0.0000000000
      7099      2339  TIP3      H2             29.3855464810       25.3887267438       35.6654018360  SOLV      2376            0.0000000000
      7100      2340  TIP3      OH2            30.4618164810       24.7799367438       26.5235418360  SOLV      2377            0.0000000000
      7101      2340  TIP3      H1             30.2662664810       25.3856167438       25.8086018360  SOLV      2377            0.0000000000
      7102      2340  TIP3      H2             30.6430764810       23.9464567438       26.0891718360  SOLV      2377            0.0000000000
      7103      2341  TIP3      OH2            21.6746364810       25.0172067438       31.8476918360  SOLV      2378            0.0000000000
      7104      2341  TIP3      H1             21.6365764810       25.4173667438       32.7164018360  SOLV      2378            0.0000000000
      7105      2341  TIP3      H2             21.1837464810       24.2004467438       31.9379818360  SOLV      2378            0.0000000000
      7106      2342  TIP3      OH2            25.0403764810       22.3914367438       18.6462918360  SOLV      2379            0.0000000000
      7107      2342  TIP3      H1             24.6094464810       21.9464467438       19.3760318360  SOLV      2379            0.0000000000
      7108      2342  TIP3      H2             24.3222464810       22.7630667438       18.1340418360  SOLV      2379            0.0000000000
      7109      2343  TIP3      OH2            18.2827164810       22.1333867438       25.6981618360  SOLV      2380            0.0000000000
      7110      2343  TIP3      H1             18.9134864810       22.1045967438       26.4175518360  SOLV      2380            0.0000000000
      7111      2343  TIP3      H2             18.7321464810       21.7082567438       24.9677518360  SOLV      2380            0.0000000000
      7112      2344  TIP3      OH2            19.5569264810       22.8795867438       21.1222018360  SOLV      2381            0.0000000000
      7113      2344  TIP3      H1             20.0310964810       23.4705767438       20.5372918360  SOLV      2381            0.0000000000
      7114      2344  TIP3      H2             18.8395664810       23.4098767438       21.4692118360  SOLV      2381            0.0000000000
      7115      2345  TIP3      OH2            29.7257364810       26.4180667438       31.1947818360  SOLV      2382            0.0000000000
      7116      2345  TIP3      H1             30.0492164810       25.7870367438       30.5518318360  SOLV      2382            0.0000000000
      7117      2345  TIP3      H2             29.2856664810       25.8832867438       31.8555218360  SOLV      2382            0.0000000000
      7118      2346  TIP3      OH2            26.5030264810       22.3456167438       25.9789018360  SOLV      2383            0.0000000000
      7119      2346  TIP3      H1             25.5921364810       22.4022967438       26.2675018360  SOLV      2383            0.0000000000
      7120      2346  TIP3      H2             27.0083164810       22.2851667438       26.7896218360  SOLV      2383            0.0000000000
      7121      2347  TIP3      OH2            21.3313664810       23.9742467438       24.8056618360  SOLV      2384            0.0000000000
      7122      2347  TIP3      H1             20.4421664810       24.0737967438       24.4656218360  SOLV      2384            0.0000000000
      7123      2347  TIP3      H2             21.6278564810       23.1325467438       24.4594518360  SOLV      2384            0.0000000000
      7124      2348  TIP3      OH2            24.9845464810       23.9745067438       22.4621218360  SOLV      2385            0.0000000000
      7125      2348  TIP3      H1             25.9160964810       24.1035067438       22.6404318360  SOLV      2385            0.0000000000
      7126      2348  TIP3      H2             24.7695764810       24.6439367438       21.8125918360  SOLV      2385            0.0000000000
      7127      2349  TIP3      OH2            30.9082164810       21.5802467438       29.2430818360  SOLV      2386            0.0000000000
      7128      2349  TIP3      H1             30.2313764810       21.7115567438       29.9070518360  SOLV      2386            0.0000000000
      7129      2349  TIP3      H2             30.4227064810       21.4251967438       28.4328518360  SOLV      2386            0.0000000000
      7130      2350  TIP3      OH2            23.6585664810       25.1687267438       20.0287318360  SOLV      2387            0.0000000000
      7131      2350  TIP3      H1             23.1160764810       24.7891067438       19.3374918360  SOLV      2387            0.0000000000
      7132      2350  TIP3      H2             24.4920564810       25.3631967438       19.6001418360  SOLV      2387            0.0000000000
      7133      2351  TIP3      OH2            34.1957264810       37.2517867438       35.5198418360  SOLV      2388            0.0000000000
      7134      2351  TIP3      H1             34.3955964810       37.6759767438       34.6853718360  SOLV      2388            0.0000000000
      7135      2351  TIP3      H2             34.8510964810       37.5956067438       36.1268818360  SOLV      2388            0.0000000000
      7136      2352  TIP3      OH2            21.7937064810       29.7259167438       35.1278918360  SOLV      2389            0.0000000000
      7137      2352  TIP3      H1             22.5259464810       29.9805067438       35.6893418360  SOLV      2389            0.0000000000
      7138      2352  TIP3      H2             21.0135764810       29.9304567438       35.6434318360  SOLV      2389            0.0000000000
      7139      2353  TIP3      OH2            27.8229964810       25.1329167438       27.8658618360  SOLV      2390            0.0000000000
      7140      2353  TIP3      H1             28.3873364810       24.5865767438       27.3188218360  SOLV      2390            0.0000000000
      7141      2353  TIP3      H2             27.6753364810       24.6111067438       28.6546218360  SOLV      2390            0.0000000000
      7142      2354  TIP3      OH2            22.8249664810       21.2695267438       24.2843418360  SOLV      2391            0.0000000000
      7143      2354  TIP3      H1             22.5079164810       20.3670567438       24.2488818360  SOLV      2391            0.0000000000
      7144      2354  TIP3      H2             23.6063764810       21.2712667438       23.7315018360  SOLV      2391            0.0000000000
      7145      2355  TIP3      OH2            26.4495864810       23.5215267438       30.2799018360  SOLV      2392            0.0000000000
      7146      2355  TIP3      H1             25.6141164810       23.9754767438       30.3901418360  SOLV      2392            0.0000000000
      7147      2355  TIP3      H2             26.9736464810       23.7973767438       31.0318918360  SOLV      2392            0.0000000000
      7148      2356  TIP3      OH2            26.9938464810       29.7342967438       21.9645418360  SOLV      2393            0.0000000000
      7149      2356  TIP3      H1             26.2489464810       29.2268267438       21.6423318360  SOLV      2393            0.0000000000
      7150      2356  TIP3      H2             26.8595664810       29.7830967438       22.9110218360  SOLV      2393            0.0000000000
      7151      2357  TIP3      OH2            34.1437364810       28.8671167438       30.7513018360  SOLV      2394            0.0000000000
      7152      2357  TIP3      H1             34.7856164810       29.3237467438       30.2075218360  SOLV      2394            0.0000000000
      7153      2357  TIP3      H2             33.3134264810       28.9803567438       30.2887118360  SOLV      2394            0.0000000000
      7154      2358  TIP3      OH2            30.8915264810       22.5482867438       20.1638018360  SOLV      2395            0.0000000000
      7155      2358  TIP3      H1             29.9529464810       22.6598467438       20.0126818360  SOLV      2395            0.0000000000
      7156      2358  TIP3      H2             31.1887364810       23.4049767438       20.4703718360  SOLV      2395            0.0000000000
      7157      2359  TIP3      OH2            28.5130564810       29.9186267438       33.2014518360  SOLV      2396            0.0000000000
      7158      2359  TIP3      H1             28.1676664810       29.5368667438       34.0084118360  SOLV      2396            0.0000000000
      7159      2359  TIP3      H2             28.3130664810       30.8519867438       33.2727418360  SOLV      2396            0.0000000000
      7160      2360  TIP3      OH2            31.6098764810       24.4155567438       21.8245418360  SOLV      2397            0.0000000000
      7161      2360  TIP3      H1             32.5017764810       24.2780567438       22.1436618360  SOLV      2397            0.0000000000
      7162      2360  TIP3      H2             31.6662364810       25.2061667438       21.2878918360  SOLV      2397            0.0000000000
      7163      2361  TIP3      OH2            22.1186764810       29.0292967438       27.7343318360  SOLV      2398            0.0000000000
      7164      2361  TIP3      H1             22.8633964810       29.0268667438       27.1329818360  SOLV      2398            0.0000000000
      7165      2361  TIP3      H2             22.1963364810       28.2056767438       28.2158418360  SOLV      2398            0.0000000000
      7166      2362  TIP3      OH2            29.1192564810       31.1927267438       20.9900018360  SOLV      2399            0.0000000000
      7167      2362  TIP3      H1             28.8240964810       32.0195167438       21.3714818360  SOLV      2399            0.0000000000
      7168      2362  TIP3      H2             28.4162564810       30.5734167438       21.1861418360  SOLV      2399            0.0000000000
      7169      2363  TIP3      OH2            19.1266464810       27.4899867438       33.0491818360  SOLV      2400            0.0000000000
      7170      2363  TIP3      H1             19.3495064810       27.0719467438       33.8809318360  SOLV      2400            0.0000000000
      7171      2363  TIP3      H2             18.5246564810       26.8774867438       32.6264618360  SOLV      2400            0.0000000000
      7172      2364  TIP3      OH2            26.1431364810       27.0069767438       35.2621518360  SOLV      2401            0.0000000000
      7173      2364  TIP3      H1             25.8472164810       26.8412767438       34.3670618360  SOLV      2401            0.0000000000
      7174      2364  TIP3      H2             27.0746564810       26.7870067438       35.2515418360  SOLV      2401            0.0000000000
      7175      2365  TIP3      OH2            30.7634164810       32.3801767438       33.1519518360  SOLV      2402            0.0000000000
      7176      2365  TIP3      H1             29.8628464810       32.5634367438       32.8843418360  SOLV      2402            0.0000000000
      7177      2365  TIP3      H2             30.7975264810       32.6391067438       34.0728318360  SOLV      2402            0.0000000000
      7178      2366  TIP3      OH2            36.4947464810       24.6249667438       21.5192118360  SOLV      2403            0.0000000000
      7179      2366  TIP3      H1             35.9403764810       24.2287667438       20.8469618360  SOLV      2403            0.0000000000
      7180      2366  TIP3      H2             36.5951064810       25.5354867438       21.2415418360  SOLV      2403            0.0000000000
      7181      2367  TIP3      OH2            36.4579464810       30.4251367438       34.3563618360  SOLV      2404            0.0000000000
      7182      2367  TIP3      H1             35.6067964810       30.6635167438       33.9890018360  SOLV      2404            0.0000000000
      7183      2367  TIP3      H2             37.0482864810       30.4084567438       33.6030718360  SOLV      2404            0.0000000000
      7184      2368  TIP3      OH2            34.7899164810       33.4110067438       21.9844218360  SOLV      2405            0.0000000000
      7185      2368  TIP3      H1             34.4170264810       32.5853867438       22.2934818360  SOLV      2405            0.0000000000
      7186      2368  TIP3      H2             35.0672664810       33.2279467438       21.0867618360  SOLV      2405            0.0000000000
      7187      2369  TIP3      OH2            31.9503064810       28.2189567438       29.0056118360  SOLV      2406            0.0000000000
      7188      2369  TIP3      H1             31.0219964810       27.9871467438       28.9785418360  SOLV      2406            0.0000000000
      7189      2369  TIP3      H2             32.4014164810       27.4419367438       28.6754918360  SOLV      2406            0.0000000000
      7190      2370  TIP3      OH2            24.4936164810       32.5471167438       25.1384818360  SOLV      2407            0.0000000000
      7191      2370  TIP3      H1             25.0208364810       33.3205567438       24.9383618360  SOLV      2407            0.0000000000
      7192      2370  TIP3      H2             23.6134664810       32.7720367438       24.8368818360  SOLV      2407            0.0000000000
      7193      2371  TIP3      OH2            20.2483864810       27.4095267438       19.7257218360  SOLV      2408            0.0000000000
      7194      2371  TIP3      H1             20.8643764810       28.0362467438       20.1052018360  SOLV      2408            0.0000000000
      7195      2371  TIP3      H2             19.3866464810       27.7255067438       19.9973718360  SOLV      2408            0.0000000000
      7196      2372  TIP3      OH2            25.9208464810       30.2101067438       24.7149118360  SOLV      2409            0.0000000000
      7197      2372  TIP3      H1             25.6798464810       31.1355467438       24.7564418360  SOLV      2409            0.0000000000
      7198      2372  TIP3      H2             25.1802064810       29.7512367438       25.1113018360  SOLV      2409            0.0000000000
      7199      2373  TIP3      OH2            26.4355064810       34.3594667438       31.0300218360  SOLV      2410            0.0000000000
      7200      2373  TIP3      H1             26.7979764810       35.2140267438       30.7964618360  SOLV      2410            0.0000000000
      7201      2373  TIP3      H2             26.9670264810       34.0676267438       31.7706518360  SOLV      2410            0.0000000000
      7202      2374  TIP3      OH2            24.6039264810       35.2318667438       24.2601318360  SOLV      2411            0.0000000000
      7203      2374  TIP3      H1             23.6539764810       35.3376067438       24.3114618360  SOLV      2411            0.0000000000
      7204      2374  TIP3      H2             24.9557364810       36.0526067438       24.6048818360  SOLV      2411            0.0000000000
      7205      2375  TIP3      OH2            29.9795864810       30.4585367438       30.7305818360  SOLV      2412            0.0000000000
      7206      2375  TIP3      H1             29.5537164810       30.2307067438       31.5569818360  SOLV      2412            0.0000000000
      7207      2375  TIP3      H2             30.5601664810       29.7197167438       30.5481118360  SOLV      2412            0.0000000000
      7208      2376  TIP3      OH2            32.1824764810       31.3875867438       19.8044818360  SOLV      2413            0.0000000000
      7209      2376  TIP3      H1             32.5357864810       31.0075667438       20.6088318360  SOLV      2413            0.0000000000
      7210      2376  TIP3      H2             31.2338264810       31.2940667438       19.8914118360  SOLV      2413            0.0000000000
      7211      2377  TIP3      OH2            32.6380064810       35.0104867438       33.2000618360  SOLV      2414            0.0000000000
      7212      2377  TIP3      H1             32.0363264810       34.4547767438       32.7046918360  SOLV      2414            0.0000000000
      7213      2377  TIP3      H2             32.9193764810       35.6774667438       32.5738018360  SOLV      2414            0.0000000000
      7214      2378  TIP3      OH2            36.6859164810       35.8668367438       20.0055018360  SOLV      2415            0.0000000000
      7215      2378  TIP3      H1             37.4297064810       36.4528867438       19.8656618360  SOLV      2415            0.0000000000
      7216      2378  TIP3      H2             35.9917264810       36.4354167438       20.3387418360  SOLV      2415            0.0000000000
      7217      2379  TIP3      OH2            20.7605964810       22.2432567438       32.6073218360  SOLV      2416            0.0000000000
      7218      2379  TIP3      H1             19.8678264810       22.5817967438       32.5397218360  SOLV      2416            0.0000000000
      7219      2379  TIP3      H2             20.6618764810       21.3878667438       33.0254018360  SOLV      2416            0.0000000000
      7220      2380  TIP3      OH2            33.0484064810       30.0597867438       22.0312718360  SOLV      2417            0.0000000000
      7221      2380  TIP3      H1             32.7711664810       29.3317167438       22.5873818360  SOLV      2417            0.0000000000
      7222      2380  TIP3      H2             33.9757064810       30.1789867438       22.2365318360  SOLV      2417            0.0000000000
      7223      2381  TIP3      OH2            20.4117964810       34.0476967438       31.0422618360  SOLV      2418            0.0000000000
      7224      2381  TIP3      H1             20.6288264810       33.1159367438       31.0112318360  SOLV      2418            0.0000000000
      7225      2381  TIP3      H2             20.6581464810       34.3221967438       31.9255418360  SOLV      2418            0.0000000000
      7226      2382  TIP3      OH2            26.2732564810       32.4991967438       18.2514818360  SOLV      2419            0.0000000000
      7227      2382  TIP3      H1             26.5122364810       31.7510067438       17.7043718360  SOLV      2419            0.0000000000
      7228      2382  TIP3      H2             26.0043864810       32.1113667438       19.0842618360  SOLV      2419            0.0000000000
      7229      2383  TIP3      OH2            25.2103164810       32.0695767438       20.7077418360  SOLV      2420            0.0000000000
      7230      2383  TIP3      H1             25.3571164810       31.5495567438       21.4978318360  SOLV      2420            0.0000000000
      7231      2383  TIP3      H2             25.2074864810       32.9763367438       21.0143318360  SOLV      2420            0.0000000000
      7232      2384  TIP3      OH2            21.6634264810       29.3219067438       21.2182818360  SOLV      2421            0.0000000000
      7233      2384  TIP3      H1             20.9773564810       29.6741567438       21.7852518360  SOLV      2421            0.0000000000
      7234      2384  TIP3      H2             22.1862164810       30.0848667438       20.9717118360  SOLV      2421            0.0000000000
      7235      2385  TIP3      OH2            29.4949364810       21.9842867438       31.4971818360  SOLV      2422            0.0000000000
      7236      2385  TIP3      H1             30.1937264810       22.0581567438       32.1471518360  SOLV      2422            0.0000000000
      7237      2385  TIP3      H2             29.1140764810       21.1197867438       31.6514718360  SOLV      2422            0.0000000000
      7238      2386  TIP3      OH2            30.2794264810       21.6364567438       22.5944118360  SOLV      2423            0.0000000000
      7239      2386  TIP3      H1             30.4992564810       22.1079967438       21.7909518360  SOLV      2423            0.0000000000
      7240      2386  TIP3      H2             30.8378264810       22.0307167438       23.2644718360  SOLV      2423            0.0000000000
      7241      2387  TIP3      OH2            27.9480364810       33.7669367438       21.4571618360  SOLV      2424            0.0000000000
      7242      2387  TIP3      H1             27.1316464810       34.2639067438       21.5095918360  SOLV      2424            0.0000000000
      7243      2387  TIP3      H2             28.4776664810       34.2422867438       20.8170418360  SOLV      2424            0.0000000000
      7244      2388  TIP3      OH2            27.4794164810       23.3643367438       23.4292518360  SOLV      2425            0.0000000000
      7245      2388  TIP3      H1             28.2916764810       23.8686567438       23.4754218360  SOLV      2425            0.0000000000
      7246      2388  TIP3      H2             27.2347164810       23.2193067438       24.3432118360  SOLV      2425            0.0000000000
      7247      2389  TIP3      OH2            28.0150564810       24.3506067438       32.6139118360  SOLV      2426            0.0000000000
      7248      2389  TIP3      H1             28.1340864810       24.9241467438       33.3709518360  SOLV      2426            0.0000000000
      7249      2389  TIP3      H2             28.6705164810       23.6625467438       32.7286918360  SOLV      2426            0.0000000000
      7250      2390  TIP3      OH2            28.3630864810       20.4456367438       24.3673618360  SOLV      2427            0.0000000000
      7251      2390  TIP3      H1             28.0164364810       21.0626967438       25.0117918360  SOLV      2427            0.0000000000
      7252      2390  TIP3      H2             29.0217764810       20.9462067438       23.8859118360  SOLV      2427            0.0000000000
      7253      2391  TIP3      OH2            25.2863464810       34.8106567438       21.4388518360  SOLV      2428            0.0000000000
      7254      2391  TIP3      H1             25.4472164810       35.6104067438       20.9381118360  SOLV      2428            0.0000000000
      7255      2391  TIP3      H2             25.0891264810       35.1172567438       22.3239118360  SOLV      2428            0.0000000000
      7256      2392  TIP3      OH2            24.0207864810       21.5085767438       21.0546118360  SOLV      2429            0.0000000000
      7257      2392  TIP3      H1             23.9372664810       22.3968867438       21.4012518360  SOLV      2429            0.0000000000
      7258      2392  TIP3      H2             24.9108164810       21.2432467438       21.2862918360  SOLV      2429            0.0000000000
      7259      2393  TIP3      OH2            34.2196364810       22.2576367438       33.4488818360  SOLV      2430            0.0000000000
      7260      2393  TIP3      H1             33.3032164810       22.5198067438       33.3612518360  SOLV      2430            0.0000000000
      7261      2393  TIP3      H2             34.5551364810       22.2545367438       32.5524118360  SOLV      2430            0.0000000000
      7262      2394  TIP3      OH2            32.8217364810       26.0077367438       27.5446118360  SOLV      2431            0.0000000000
      7263      2394  TIP3      H1             32.0241764810       25.5927567438       27.2161118360  SOLV      2431            0.0000000000
      7264      2394  TIP3      H2             33.2668464810       25.3171067438       28.0356618360  SOLV      2431            0.0000000000
      7265      2395  TIP3      OH2            22.2793164810       31.9357967438       20.1150618360  SOLV      2432            0.0000000000
      7266      2395  TIP3      H1             22.8714664810       32.6352767438       20.3913018360  SOLV      2432            0.0000000000
      7267      2395  TIP3      H2             22.7386164810       31.5027467438       19.3955218360  SOLV      2432            0.0000000000
      7268      2396  TIP3      OH2            20.5952364810       24.6000967438       19.2310018360  SOLV      2433            0.0000000000
      7269      2396  TIP3      H1             20.5504964810       25.5394067438       19.4097018360  SOLV      2433            0.0000000000
      7270      2396  TIP3      H2             19.7075564810       24.3645867438       18.9612118360  SOLV      2433            0.0000000000
      7271      2397  TIP3      OH2            33.9081964810       35.2639867438       29.1669618360  SOLV      2434            0.0000000000
      7272      2397  TIP3      H1             33.7526264810       35.9424267438       28.5098918360  SOLV      2434            0.0000000000
      7273      2397  TIP3      H2             34.8408364810       35.3359167438       29.3700218360  SOLV      2434            0.0000000000
      7274      2398  TIP3      OH2            21.4034364810       19.3817567438       27.9041018360  SOLV      2435            0.0000000000
      7275      2398  TIP3      H1             21.1744164810       19.4410067438       26.9766018360  SOLV      2435            0.0000000000
      7276      2398  TIP3      H2             20.9607764810       18.5903067438       28.2105118360  SOLV      2435            0.0000000000
      7277      2399  TIP3      OH2            20.3337664810       33.3224667438       24.0646818360  SOLV      2436            0.0000000000
      7278      2399  TIP3      H1             19.5016264810       33.7947367438       24.0918218360  SOLV      2436            0.0000000000
      7279      2399  TIP3      H2             20.8795964810       33.8322267438       23.4659918360  SOLV      2436            0.0000000000
      7280      2400  TIP3      OH2            19.6221364810       35.9348367438       35.3944818360  SOLV      2437            0.0000000000
      7281      2400  TIP3      H1             20.1623564810       35.7182367438       36.1544018360  SOLV      2437            0.0000000000
      7282      2400  TIP3      H2             19.1409364810       35.1294367438       35.2047318360  SOLV      2437            0.0000000000
      7283      2401  TIP3      OH2            24.2194764810       34.8542767438       37.0149018360  SOLV      2438            0.0000000000
      7284      2401  TIP3      H1             24.9871964810       34.3953567438       37.3558218360  SOLV      2438            0.0000000000
      7285      2401  TIP3      H2             24.1980964810       34.6282567438       36.0850218360  SOLV      2438            0.0000000000
      7286      2402  TIP3      OH2            28.3114364810       34.3623367438       18.3900818360  SOLV      2439            0.0000000000
      7287      2402  TIP3      H1             27.6675364810       33.7311967438       18.7114518360  SOLV      2439            0.0000000000
      7288      2402  TIP3      H2             29.0732664810       33.8311367438       18.1584318360  SOLV      2439            0.0000000000
      7289      2403  TIP3      OH2            30.7963464810       33.2343867438       35.7440518360  SOLV      2440            0.0000000000
      7290      2403  TIP3      H1             30.4452964810       32.3776867438       35.9870918360  SOLV      2440            0.0000000000
      7291      2403  TIP3      H2             31.5226664810       33.3770567438       36.3509518360  SOLV      2440            0.0000000000
      7292      2404  TIP3      OH2            32.9157264810       34.1793267438       18.6238818360  SOLV      2441            0.0000000000
      7293      2404  TIP3      H1             33.1987664810       33.3848467438       19.0765718360  SOLV      2441            0.0000000000
      7294      2404  TIP3      H2             33.6555164810       34.4124267438       18.0629918360  SOLV      2441            0.0000000000
      7295      2405  TIP3      OH2            19.5290864810       29.7452467438       36.3489118360  SOLV      2442            0.0000000000
      7296      2405  TIP3      H1             19.6731364810       28.8433167438       36.0625818360  SOLV      2442            0.0000000000
      7297      2405  TIP3      H2             18.7568264810       30.0314567438       35.8611418360  SOLV      2442            0.0000000000
      7298      2406  TIP3      OH2            23.8704564810       30.0888167438       18.4813718360  SOLV      2443            0.0000000000
      7299      2406  TIP3      H1             23.9348664810       29.2947767438       19.0120118360  SOLV      2443            0.0000000000
      7300      2406  TIP3      H2             24.5233764810       29.9700967438       17.7915718360  SOLV      2443            0.0000000000
      7301      2407  TIP3      OH2            26.1846964810       29.7150567438       35.7815518360  SOLV      2444            0.0000000000
      7302      2407  TIP3      H1             25.8560764810       29.9858667438       34.9242918360  SOLV      2444            0.0000000000
      7303      2407  TIP3      H2             26.3365164810       28.7740367438       35.6940518360  SOLV      2444            0.0000000000
      7304      2408  TIP3      OH2            29.2227964810       31.1359867438       18.2171718360  SOLV      2445            0.0000000000
      7305      2408  TIP3      H1             28.9542064810       31.3161967438       19.1180618360  SOLV      2445            0.0000000000
      7306      2408  TIP3      H2             29.0163564810       30.2106067438       18.0857518360  SOLV      2445            0.0000000000
      7307      2409  TIP3      OH2            31.9192164810       29.6307867438       33.1647818360  SOLV      2446            0.0000000000
      7308      2409  TIP3      H1             32.6646964810       30.2191567438       33.0451818360  SOLV      2446            0.0000000000
      7309      2409  TIP3      H2             31.1618964810       30.2127567438       33.2280918360  SOLV      2446            0.0000000000
      7310      2410  TIP3      OH2            20.3617364810       26.9455767438       35.7688418360  SOLV      2447            0.0000000000
      7311      2410  TIP3      H1             20.7698564810       26.0882367438       35.6479018360  SOLV      2447            0.0000000000
      7312      2410  TIP3      H2             20.1014964810       26.9597067438       36.6898718360  SOLV      2447            0.0000000000
      7313      2411  TIP3      OH2            25.0198364810       28.0614367438       20.7871718360  SOLV      2448            0.0000000000
      7314      2411  TIP3      H1             24.5600364810       27.5772667438       21.4730218360  SOLV      2448            0.0000000000
      7315      2411  TIP3      H2             25.2747064810       27.3929767438       20.1512218360  SOLV      2448            0.0000000000
      7316      2412  TIP3      OH2            24.3087664810       25.9541467438       33.1431318360  SOLV      2449            0.0000000000
      7317      2412  TIP3      H1             23.6903764810       26.6288067438       33.4236018360  SOLV      2449            0.0000000000
      7318      2412  TIP3      H2             24.6528864810       26.2755367438       32.3097518360  SOLV      2449            0.0000000000
      7319      2413  TIP3      OH2            26.0908764810       26.3046167438       19.0494918360  SOLV      2450            0.0000000000
      7320      2413  TIP3      H1             25.9103764810       26.1497367438       18.1223218360  SOLV      2450            0.0000000000
      7321      2413  TIP3      H2             27.0409264810       26.4124867438       19.0942818360  SOLV      2450            0.0000000000
      7322      2414  TIP3      OH2            29.3285864810       28.4256767438       36.4206118360  SOLV      2451            0.0000000000
      7323      2414  TIP3      H1             30.2817064810       28.5095867438       36.3932118360  SOLV      2451            0.0000000000
      7324      2414  TIP3      H2             29.1680464810       27.7138567438       37.0401018360  SOLV      2451            0.0000000000
      7325      2415  TIP3      OH2            35.4807064810       28.6590367438       18.4953018360  SOLV      2452            0.0000000000
      7326      2415  TIP3      H1             35.2071864810       28.2345867438       17.6821318360  SOLV      2452            0.0000000000
      7327      2415  TIP3      H2             35.5201164810       29.5904867438       18.2783418360  SOLV      2452            0.0000000000
      7328      2416  TIP3      OH2            24.6481364810       23.3092267438       34.2254418360  SOLV      2453            0.0000000000
      7329      2416  TIP3      H1             24.7982264810       22.5803567438       33.6234118360  SOLV      2453            0.0000000000
      7330      2416  TIP3      H2             24.6503764810       24.0863967438       33.6666618360  SOLV      2453            0.0000000000
      7331      2417  TIP3      OH2            25.0607064810       21.6788067438       31.7181818360  SOLV      2454            0.0000000000
      7332      2417  TIP3      H1             25.5964564810       22.1304767438       31.0661118360  SOLV      2454            0.0000000000
      7333      2417  TIP3      H2             24.2086664810       21.5707867438       31.2955918360  SOLV      2454            0.0000000000
      7334      2418  TIP3      OH2            26.6425464810       27.1184267438       31.9577018360  SOLV      2455            0.0000000000
      7335      2418  TIP3      H1             27.3930264810       26.9621767438       31.3844818360  SOLV      2455            0.0000000000
      7336      2418  TIP3      H2             26.3033764810       27.9700867438       31.6822518360  SOLV      2455            0.0000000000
      7337      2419  TIP3      OH2            31.0581664810       24.9336067438       36.9862318360  SOLV      2456            0.0000000000
      7338      2419  TIP3      H1             31.2502964810       24.0025467438       36.8746818360  SOLV      2456            0.0000000000
      7339      2419  TIP3      H2             31.9157964810       25.3585567438       36.9757718360  SOLV      2456            0.0000000000
      7340      2420  TIP3      OH2            32.3748864810       27.7221267438       35.0635018360  SOLV      2457            0.0000000000
      7341      2420  TIP3      H1             32.0933864810       28.4315867438       34.4858818360  SOLV      2457            0.0000000000
      7342      2420  TIP3      H2             33.3173164810       27.6494267438       34.9126218360  SOLV      2457            0.0000000000
      7343      2421  TIP3      OH2            23.1267664810       24.5075767438       36.1370018360  SOLV      2458            0.0000000000
      7344      2421  TIP3      H1             22.3596664810       23.9750567438       35.9267618360  SOLV      2458            0.0000000000
      7345      2421  TIP3      H2             23.8056664810       24.1976167438       35.5376318360  SOLV      2458            0.0000000000
      7346      2422  TIP3      OH2            25.8662564810       19.1353767438       32.1495418360  SOLV      2459            0.0000000000
      7347      2422  TIP3      H1             25.7682164810       20.0816967438       32.0441618360  SOLV      2459            0.0000000000
      7348      2422  TIP3      H2             25.1238764810       18.7627567438       31.6738918360  SOLV      2459            0.0000000000
      7349      2423  TIP3      OH2            27.1303064810       23.4569167438       35.7133818360  SOLV      2460            0.0000000000
      7350      2423  TIP3      H1             26.8948464810       23.2375867438       36.6148718360  SOLV      2460            0.0000000000
      7351      2423  TIP3      H2             26.3469964810       23.2500367438       35.2036318360  SOLV      2460            0.0000000000
      7352      2424  TIP3      OH2            29.8459664810       22.5842667438       34.7887318360  SOLV      2461            0.0000000000
      7353      2424  TIP3      H1             28.8985064810       22.6162367438       34.9210618360  SOLV      2461            0.0000000000
      7354      2424  TIP3      H2             30.1586364810       21.9589767438       35.4425518360  SOLV      2461            0.0000000000
      7355      2425  TIP3      OH2            31.4801164810       21.2183767438       36.7939218360  SOLV      2462            0.0000000000
      7356      2425  TIP3      H1             31.3832964810       20.2661067438       36.7881118360  SOLV      2462            0.0000000000
      7357      2425  TIP3      H2             31.1584264810       21.4870567438       37.6544718360  SOLV      2462            0.0000000000
      7358      2426  TIP3      OH2            21.3070464810       22.4279567438       35.8414718360  SOLV      2463            0.0000000000
      7359      2426  TIP3      H1             21.5187864810       21.7215667438       35.2312218360  SOLV      2463            0.0000000000
      7360      2426  TIP3      H2             21.1957964810       21.9905567438       36.6855918360  SOLV      2463            0.0000000000
      7361      2427  TIP3      OH2            26.0880664810       18.4291167438       34.8208218360  SOLV      2464            0.0000000000
      7362      2427  TIP3      H1             26.7999064810       17.7893367438       34.8067318360  SOLV      2464            0.0000000000
      7363      2427  TIP3      H2             25.9871064810       18.6959467438       33.9071318360  SOLV      2464            0.0000000000
      7364      2428  TIP3      OH2            26.4418164810       20.1119567438       36.8744518360  SOLV      2465            0.0000000000
      7365      2428  TIP3      H1             26.3100364810       19.6363367438       36.0543018360  SOLV      2465            0.0000000000
      7366      2428  TIP3      H2             25.8425564810       20.8563167438       36.8191618360  SOLV      2465            0.0000000000
      7367      2429  TIP3      OH2            25.9880464810       36.9949867438       20.0508518360  SOLV      2466            0.0000000000
      7368      2429  TIP3      H1             26.9211164810       37.1528567438       20.1946918360  SOLV      2466            0.0000000000
      7369      2429  TIP3      H2             25.7239264810       37.6702867438       19.4260018360  SOLV      2466            0.0000000000
      7370      2430  TIP3      OH2            19.5565364810       31.6313667438       19.5336618360  SOLV      2467            0.0000000000
      7371      2430  TIP3      H1             20.4704564810       31.7102567438       19.8070518360  SOLV      2467            0.0000000000
      7372      2430  TIP3      H2             19.5638464810       30.9443267438       18.8672218360  SOLV      2467            0.0000000000
      7373      2431  TIP3      OH2            18.2055964810       37.0242167438       24.6110518360  SOLV      2468            0.0000000000
      7374      2431  TIP3      H1             17.5583064810       36.5623867438       24.0781718360  SOLV      2468            0.0000000000
      7375      2431  TIP3      H2             18.5600564810       36.3525467438       25.1936718360  SOLV      2468            0.0000000000
      7376      2432  TIP3      OH2            19.0755164810       35.1049167438       26.4156718360  SOLV      2469            0.0000000000
      7377      2432  TIP3      H1             18.7411964810       34.2246467438       26.5876918360  SOLV      2469            0.0000000000
      7378      2432  TIP3      H2             19.2977564810       35.4504167438       27.2802318360  SOLV      2469            0.0000000000
      7379      2433  TIP3      OH2            36.6239964810       35.9145567438       29.3961518360  SOLV      2470            0.0000000000
      7380      2433  TIP3      H1             36.6026664810       36.0993967438       30.3350918360  SOLV      2470            0.0000000000
      7381      2433  TIP3      H2             37.3146164810       36.4829567438       29.0552918360  SOLV      2470            0.0000000000
      7382      2434  TIP3      OH2            36.1872864810       35.4816667438       32.3180618360  SOLV      2471            0.0000000000
      7383      2434  TIP3      H1             35.7001564810       34.7460767438       31.9468018360  SOLV      2471            0.0000000000
      7384      2434  TIP3      H2             36.7365564810       35.0880567438       32.9960018360  SOLV      2471            0.0000000000
      7385      2435  TIP3      OH2            34.6380164810       31.2714767438       36.9560918360  SOLV      2472            0.0000000000
      7386      2435  TIP3      H1             33.7721264810       31.1664467438       37.3503218360  SOLV      2472            0.0000000000
      7387      2435  TIP3      H2             35.0146064810       32.0298067438       37.4025618360  SOLV      2472            0.0000000000
      7388      2436  TIP3      OH2            35.9389864810       29.5278467438       22.4703418360  SOLV      2473            0.0000000000
      7389      2436  TIP3      H1             36.7891264810       29.9489367438       22.5975018360  SOLV      2473            0.0000000000
      7390      2436  TIP3      H2             35.9444964810       28.7878567438       23.0774818360  SOLV      2473            0.0000000000
      7391      2437  TIP3      OH2            36.3335464810       27.5815867438       24.2939118360  SOLV      2474            0.0000000000
      7392      2437  TIP3      H1             35.6070064810       27.1018467438       24.6916718360  SOLV      2474            0.0000000000
      7393      2437  TIP3      H2             36.9148764810       27.7870567438       25.0260718360  SOLV      2474            0.0000000000
      7394      2438  TIP3      OH2            36.0926664810       30.3663367438       29.2416718360  SOLV      2475            0.0000000000
      7395      2438  TIP3      H1             36.9260864810       29.9883367438       28.9610318360  SOLV      2475            0.0000000000
      7396      2438  TIP3      H2             36.2046964810       31.3094567438       29.1225818360  SOLV      2475            0.0000000000
      7397      2439  TIP3      OH2            34.5788964810       33.2440867438       31.5485118360  SOLV      2476            0.0000000000
      7398      2439  TIP3      H1             33.9314264810       33.5692367438       32.1740318360  SOLV      2476            0.0000000000
      7399      2439  TIP3      H2             34.0612964810       32.8038567438       30.8743418360  SOLV      2476            0.0000000000
      7400      2440  TIP3      OH2            36.6018564810       27.4824367438       20.6850418360  SOLV      2477            0.0000000000
      7401      2440  TIP3      H1             36.0799664810       27.8388467438       19.9661318360  SOLV      2477            0.0000000000
      7402      2440  TIP3      H2             36.5687764810       28.1572167438       21.3631318360  SOLV      2477            0.0000000000
      7403      2441  TIP3      OH2            34.9507564810       24.7219967438       19.2357518360  SOLV      2478            0.0000000000
      7404      2441  TIP3      H1             35.0471964810       25.3886967438       18.5557218360  SOLV      2478            0.0000000000
      7405      2441  TIP3      H2             34.8107164810       23.9066267438       18.7543018360  SOLV      2478            0.0000000000
      7406      2442  TIP3      OH2            34.1202264810       26.1022367438       24.8567818360  SOLV      2479            0.0000000000
      7407      2442  TIP3      H1             33.9701064810       25.1570967438       24.8365618360  SOLV      2479            0.0000000000
      7408      2442  TIP3      H2             33.7666764810       26.3833767438       25.7006918360  SOLV      2479            0.0000000000
      7409      2443  TIP3      OH2            19.1554664810       28.1804567438       28.8671618360  SOLV      2480            0.0000000000
      7410      2443  TIP3      H1             19.3397564810       28.0986267438       27.9314518360  SOLV      2480            0.0000000000
      7411      2443  TIP3      H2             20.0047564810       28.0561567438       29.2908018360  SOLV      2480            0.0000000000
      7412      2444  TIP3      OH2            34.9765164810       28.0725667438       34.4956118360  SOLV      2481            0.0000000000
      7413      2444  TIP3      H1             35.5592464810       27.3377967438       34.6873318360  SOLV      2481            0.0000000000
      7414      2444  TIP3      H2             35.5404464810       28.8445967438       34.5421918360  SOLV      2481            0.0000000000
      7415      2445  TIP3      OH2            36.4732264810       25.9751467438       35.1801518360  SOLV      2482            0.0000000000
      7416      2445  TIP3      H1             35.6098964810       25.5963567438       35.0146218360  SOLV      2482            0.0000000000
      7417      2445  TIP3      H2             37.0775964810       25.2366267438       35.1057318360  SOLV      2482            0.0000000000
      7418      2446  TIP3      OH2            34.1981364810       22.1299767438       18.3533018360  SOLV      2483            0.0000000000
      7419      2446  TIP3      H1             34.8087164810       21.7586567438       18.9901218360  SOLV      2483            0.0000000000
      7420      2446  TIP3      H2             33.3612864810       21.7086667438       18.5493018360  SOLV      2483            0.0000000000
      7421      2447  TIP3      OH2            33.8307064810       23.6848167438       23.3192918360  SOLV      2484            0.0000000000
      7422      2447  TIP3      H1             34.1104164810       22.7778567438       23.4434618360  SOLV      2484            0.0000000000
      7423      2447  TIP3      H2             34.5898764810       24.1189667438       22.9302118360  SOLV      2484            0.0000000000
      7424      2448  TIP3      OH2            34.4425364810       24.2665567438       28.7551818360  SOLV      2485            0.0000000000
      7425      2448  TIP3      H1             35.3753364810       24.4785467438       28.7207818360  SOLV      2485            0.0000000000
      7426      2448  TIP3      H2             34.2072864810       24.3677667438       29.6774818360  SOLV      2485            0.0000000000
      7427      2449  TIP3      OH2            34.4717264810       25.0030867438       31.5311218360  SOLV      2486            0.0000000000
      7428      2449  TIP3      H1             33.6288564810       25.2711267438       31.8971018360  SOLV      2486            0.0000000000
      7429      2449  TIP3      H2             34.9141564810       25.8252767438       31.3202318360  SOLV      2486            0.0000000000
      7430      2450  TIP3      OH2            18.7529464810       23.4509567438       35.0080418360  SOLV      2487            0.0000000000
      7431      2450  TIP3      H1             19.6724364810       23.3287867438       35.2443518360  SOLV      2487            0.0000000000
      7432      2450  TIP3      H2             18.3033964810       22.7009267438       35.3973918360  SOLV      2487            0.0000000000
      7433      2451  TIP3      OH2            36.7548864810       18.9831067438       36.8846218360  SOLV      2488            0.0000000000
      7434      2451  TIP3      H1             37.1045864810       18.3294567438       36.2790918360  SOLV      2488            0.0000000000
      7435      2451  TIP3      H2             36.9018364810       19.8205167438       36.4448818360  SOLV      2488            0.0000000000
      7436      2452  TIP3      OH2            34.4441864810       20.9477467438       23.3674918360  SOLV      2489            0.0000000000
      7437      2452  TIP3      H1             34.6266864810       20.4988967438       24.1929918360  SOLV      2489            0.0000000000
      7438      2452  TIP3      H2             33.8444764810       20.3631867438       22.9039518360  SOLV      2489            0.0000000000
      7439      2453  TIP3      OH2            19.9741964810       21.7631167438       27.8993318360  SOLV      2490            0.0000000000
      7440      2453  TIP3      H1             20.4193564810       20.9713667438       28.2013018360  SOLV      2490            0.0000000000
      7441      2453  TIP3      H2             20.4404964810       22.4796367438       28.3298918360  SOLV      2490            0.0000000000
      7442      2454  TIP3      OH2            18.2782264810       24.7624167438       28.9683518360  SOLV      2491            0.0000000000
      7443      2454  TIP3      H1             18.7702064810       24.5414667438       28.1775518360  SOLV      2491            0.0000000000
      7444      2454  TIP3      H2             18.6403164810       25.6027567438       29.2493018360  SOLV      2491            0.0000000000
      7445      2455  TIP3      OH2            36.2746064810       21.0925667438       35.2337518360  SOLV      2492            0.0000000000
      7446      2455  TIP3      H1             35.3571764810       21.3632767438       35.1981018360  SOLV      2492            0.0000000000
      7447      2455  TIP3      H2             36.3975464810       20.5574067438       34.4497218360  SOLV      2492            0.0000000000
      7448      2456  TIP3      OH2            36.3108064810       21.0155567438       19.8955218360  SOLV      2493            0.0000000000
      7449      2456  TIP3      H1             36.7230664810       20.2941267438       19.4203218360  SOLV      2493            0.0000000000
      7450      2456  TIP3      H2             36.9924564810       21.6850167438       19.9539518360  SOLV      2493            0.0000000000
      7451      2457  TIP3      OH2            18.5918764810       21.0203267438       23.0225918360  SOLV      2494            0.0000000000
      7452      2457  TIP3      H1             17.6667164810       21.2289867438       22.8931418360  SOLV      2494            0.0000000000
      7453      2457  TIP3      H2             19.0458664810       21.5044067438       22.3328218360  SOLV      2494            0.0000000000
      7454      2458  TIP3      OH2            33.3625964810       36.0044967438       24.9683318360  SOLV      2495            0.0000000000
      7455      2458  TIP3      H1             34.0148864810       35.6567067438       24.3602418360  SOLV      2495            0.0000000000
      7456      2458  TIP3      H2             33.8729764810       36.4928167438       25.6143018360  SOLV      2495            0.0000000000
      7457      2459  TIP3      OH2            18.5554164810       19.7582267438       31.3668418360  SOLV      2496            0.0000000000
      7458      2459  TIP3      H1             17.8904664810       19.5122567438       32.0099318360  SOLV      2496            0.0000000000
      7459      2459  TIP3      H2             18.1125464810       20.3802667438       30.7896418360  SOLV      2496            0.0000000000
      7460      2460  TIP3      OH2            20.7473464810       32.9336367438       35.5114218360  SOLV      2497            0.0000000000
      7461      2460  TIP3      H1             19.9265964810       33.1082867438       35.0508918360  SOLV      2497            0.0000000000
      7462      2460  TIP3      H2             20.4951264810       32.8601067438       36.4318618360  SOLV      2497            0.0000000000
      7463      2461  TIP3      OH2            23.7016364810       33.9077567438       31.7698218360  SOLV      2498            0.0000000000
      7464      2461  TIP3      H1             23.2767464810       34.7176067438       31.4872818360  SOLV      2498            0.0000000000
      7465      2461  TIP3      H2             24.6059164810       33.9931667438       31.4678018360  SOLV      2498            0.0000000000
      7466      2462  TIP3      OH2            28.0127764810       35.3067567438       34.7291918360  SOLV      2499            0.0000000000
      7467      2462  TIP3      H1             28.1975264810       34.9733667438       35.6072218360  SOLV      2499            0.0000000000
      7468      2462  TIP3      H2             28.8592264810       35.6166167438       34.4071118360  SOLV      2499            0.0000000000
      7469      2463  TIP3      OH2            30.3578164810       36.5926467438       33.9733318360  SOLV      2500            0.0000000000
      7470      2463  TIP3      H1             31.0347064810       35.9598767438       33.7332518360  SOLV      2500            0.0000000000
      7471      2463  TIP3      H2             30.6796964810       36.9936967438       34.7806618360  SOLV      2500            0.0000000000
      7472      2464  TIP3      OH2            35.2751964810       19.1821967438       33.0528318360  SOLV      2501            0.0000000000
      7473      2464  TIP3      H1             34.4625464810       19.5072267438       32.6653018360  SOLV      2501            0.0000000000
      7474      2464  TIP3      H2             35.5080464810       18.4220467438       32.5197418360  SOLV      2501            0.0000000000
      7475      2465  TIP3      OH2            21.1033064810       37.1641467438       31.8173518360  SOLV      2502            0.0000000000
      7476      2465  TIP3      H1             20.3829464810       37.6042467438       31.3661218360  SOLV      2502            0.0000000000
      7477      2465  TIP3      H2             20.7377064810       36.9136167438       32.6657518360  SOLV      2502            0.0000000000
      7478      2466  TIP3      OH2            23.5705664810       36.7645367438       30.8470718360  SOLV      2503            0.0000000000
      7479      2466  TIP3      H1             22.7057864810       36.8363867438       31.2510818360  SOLV      2503            0.0000000000
      7480      2466  TIP3      H2             23.5154664810       37.3112667438       30.0633218360  SOLV      2503            0.0000000000
      7481      2467  TIP3      OH2            28.2811264810       36.6524267438       30.0226718360  SOLV      2504            0.0000000000
      7482      2467  TIP3      H1             27.8245264810       37.1813967438       29.3685118360  SOLV      2504            0.0000000000
      7483      2467  TIP3      H2             28.4439264810       37.2555667438       30.7479018360  SOLV      2504            0.0000000000
      7484      2468  TIP3      OH2            30.6087564810       35.5303867438       30.9677018360  SOLV      2505            0.0000000000
      7485      2468  TIP3      H1             29.7041264810       35.6954067438       30.7019118360  SOLV      2505            0.0000000000
      7486      2468  TIP3      H2             31.0376164810       36.3836067438       30.9020418360  SOLV      2505            0.0000000000
      7487      2469  TIP3      OH2            33.2129464810       37.1002967438       31.2624818360  SOLV      2506            0.0000000000
      7488      2469  TIP3      H1             33.0311464810       38.0161867438       31.0519718360  SOLV      2506            0.0000000000
      7489      2469  TIP3      H2             33.3897264810       36.6900067438       30.4159418360  SOLV      2506            0.0000000000
      7490      2470  TIP3      OH2            20.5181164810       35.7873967438       28.7275318360  SOLV      2507            0.0000000000
      7491      2470  TIP3      H1             20.4997164810       35.3619067438       29.5847618360  SOLV      2507            0.0000000000
      7492      2470  TIP3      H2             21.3229064810       35.4688967438       28.3187518360  SOLV      2507            0.0000000000
      7493      2471  TIP3      OH2            22.6594264810       34.4972667438       27.3825218360  SOLV      2508            0.0000000000
      7494      2471  TIP3      H1             22.4404964810       33.5810067438       27.5521218360  SOLV      2508            0.0000000000
      7495      2471  TIP3      H2             23.4836464810       34.6373067438       27.8486618360  SOLV      2508            0.0000000000
      7496      2472  TIP3      OH2            25.1966764810       34.9671967438       28.2313218360  SOLV      2509            0.0000000000
      7497      2472  TIP3      H1             25.4092464810       34.0790967438       27.9444118360  SOLV      2509            0.0000000000
      7498      2472  TIP3      H2             25.2611864810       34.9329667438       29.1857218360  SOLV      2509            0.0000000000
      7499      2473  TIP3      OH2            28.7050464810       20.6312567438       27.3756518360  SOLV      2510            0.0000000000
      7500      2473  TIP3      H1             28.0307264810       20.0018167438       27.6312318360  SOLV      2510            0.0000000000
      7501      2473  TIP3      H2             29.2689664810       20.1471467438       26.7724418360  SOLV      2510            0.0000000000
      7502      2474  TIP3      OH2            33.8477664810       18.7386567438       27.4883618360  SOLV      2511            0.0000000000
      7503      2474  TIP3      H1             34.4515264810       19.2861967438       26.9864618360  SOLV      2511            0.0000000000
      7504      2474  TIP3      H2             32.9779664810       19.0576967438       27.2477718360  SOLV      2511            0.0000000000
      7505      2475  TIP3      OH2            35.5748064810       19.8775267438       25.8214518360  SOLV      2512            0.0000000000
      7506      2475  TIP3      H1             36.1865564810       19.3630967438       25.2948118360  SOLV      2512            0.0000000000
      7507      2475  TIP3      H2             35.9571464810       20.7547367438       25.8448918360  SOLV      2512            0.0000000000
      7508      2476  TIP3      OH2            21.0317964810       19.2652867438       25.1976418360  SOLV      2513            0.0000000000
      7509      2476  TIP3      H1             20.2547764810       19.0307767438       24.6902318360  SOLV      2513            0.0000000000
      7510      2476  TIP3      H2             21.5621564810       18.4684967438       25.2064418360  SOLV      2513            0.0000000000
      7511      2477  TIP3      OH2            19.8681364810       19.0630967438       21.0012518360  SOLV      2514            0.0000000000
      7512      2477  TIP3      H1             20.3072064810       19.6741467438       20.4096018360  SOLV      2514            0.0000000000
      7513      2477  TIP3      H2             19.2343764810       19.6015067438       21.4752518360  SOLV      2514            0.0000000000
      7514      2478  TIP3      OH2            25.6110564810       19.1919967438       25.0109518360  SOLV      2515            0.0000000000
      7515      2478  TIP3      H1             26.4853964810       19.5804267438       24.9813818360  SOLV      2515            0.0000000000
      7516      2478  TIP3      H2             25.4751364810       18.9767767438       25.9336718360  SOLV      2515            0.0000000000
      7517      2479  TIP3      OH2            31.1678964810       19.2219767438       26.6601218360  SOLV      2516            0.0000000000
      7518      2479  TIP3      H1             31.2440564810       19.3171367438       25.7107218360  SOLV      2516            0.0000000000
      7519      2479  TIP3      H2             30.8928164810       18.3142667438       26.7890318360  SOLV      2516            0.0000000000
      7520      2480  TIP3      OH2            32.5211564810       19.2477567438       22.3526218360  SOLV      2517            0.0000000000
      7521      2480  TIP3      H1             31.8182664810       19.8626767438       22.1427618360  SOLV      2517            0.0000000000
      7522      2480  TIP3      H2             32.0762964810       18.4104267438       22.4837118360  SOLV      2517            0.0000000000
      7523      2481  TIP3      OH2            19.7690864810       35.0113167438       21.8987618360  SOLV      2518            0.0000000000
      7524      2481  TIP3      H1             19.0840764810       34.9732067438       21.2312718360  SOLV      2518            0.0000000000
      7525      2481  TIP3      H2             19.7728064810       35.9240767438       22.1869718360  SOLV      2518            0.0000000000
      7526      2482  TIP3      OH2            21.7290464810       20.9792467438       19.4436618360  SOLV      2519            0.0000000000
      7527      2482  TIP3      H1             22.2203864810       20.3494867438       18.9162118360  SOLV      2519            0.0000000000
      7528      2482  TIP3      H2             22.3526764810       21.2751867438       20.1067818360  SOLV      2519            0.0000000000
      7529      2483  TIP3      OH2            26.7550564810       21.2723967438       21.9007118360  SOLV      2520            0.0000000000
      7530      2483  TIP3      H1             26.9331864810       20.6257167438       22.5835718360  SOLV      2520            0.0000000000
      7531      2483  TIP3      H2             26.7016764810       22.1061667438       22.3678218360  SOLV      2520            0.0000000000
      7532      2484  TIP3      OH2            28.6334364810       36.2208067438       20.2963818360  SOLV      2521            0.0000000000
      7533      2484  TIP3      H1             29.4994564810       36.5875467438       20.1182018360  SOLV      2521            0.0000000000
      7534      2484  TIP3      H2             28.3867164810       35.7816067438       19.4824618360  SOLV      2521            0.0000000000
      7535      2485  TIP3      OH2            35.3423964810       35.7838367438       22.9754918360  SOLV      2522            0.0000000000
      7536      2485  TIP3      H1             35.1481064810       35.0360467438       22.4104518360  SOLV      2522            0.0000000000
      7537      2485  TIP3      H2             35.3034064810       36.5418467438       22.3922818360  SOLV      2522            0.0000000000
      7538      2486  TIP3      OH2            20.9895964810       19.7794767438       34.7152618360  SOLV      2523            0.0000000000
      7539      2486  TIP3      H1             20.6234164810       19.0137367438       35.1577318360  SOLV      2523            0.0000000000
      7540      2486  TIP3      H2             21.9024464810       19.8084967438       35.0017718360  SOLV      2523            0.0000000000
      7541      2487  TIP3      OH2            22.9626764810       19.1299167438       36.2509718360  SOLV      2524            0.0000000000
      7542      2487  TIP3      H1             23.8610364810       18.8559367438       36.0663118360  SOLV      2524            0.0000000000
      7543      2487  TIP3      H2             22.5759864810       18.3875167438       36.7152318360  SOLV      2524            0.0000000000
      7544      2488  TIP3      OH2            21.5872064810       35.9313967438       18.9239718360  SOLV      2525            0.0000000000
      7545      2488  TIP3      H1             21.3196664810       36.2176867438       19.7972818360  SOLV      2525            0.0000000000
      7546      2488  TIP3      H2             22.3584664810       35.3853167438       19.0762218360  SOLV      2525            0.0000000000
      7547      2489  TIP3      OH2            31.3839064810       18.4624467438       36.4332518360  SOLV      2526            0.0000000000
      7548      2489  TIP3      H1             31.4606264810       18.0365167438       37.2870218360  SOLV      2526            0.0000000000
      7549      2489  TIP3      H2             32.2775664810       18.4759167438       36.0906018360  SOLV      2526            0.0000000000
      7550      2490  TIP3      OH2            34.5600164810       34.5350767438       35.1256718360  SOLV      2527            0.0000000000
      7551      2490  TIP3      H1             33.7782064810       34.3488767438       34.6057318360  SOLV      2527            0.0000000000
      7552      2490  TIP3      H2             34.4880064810       35.4645067438       35.3429218360  SOLV      2527            0.0000000000
      7553      2491  TIP3      OH2            48.6100564810       28.4215167438       25.1563918360  SOLV      2528            0.0000000000
      7554      2491  TIP3      H1             48.6991664810       29.3653367438       25.0241018360  SOLV      2528            0.0000000000
      7555      2491  TIP3      H2             47.9718164810       28.1461567438       24.4983318360  SOLV      2528            0.0000000000
      7556      2492  TIP3      OH2            47.5431864810       27.6765867438       28.5752118360  SOLV      2529            0.0000000000
      7557      2492  TIP3      H1             47.5049364810       27.0302167438       29.2801718360  SOLV      2529            0.0000000000
      7558      2492  TIP3      H2             47.2208364810       27.2100267438       27.8040818360  SOLV      2529            0.0000000000
      7559      2493  TIP3      OH2            39.9116864810       27.2907967438       30.1682018360  SOLV      2530            0.0000000000
      7560      2493  TIP3      H1             39.9528964810       26.6651267438       30.8914418360  SOLV      2530            0.0000000000
      7561      2493  TIP3      H2             40.6144564810       27.9146567438       30.3502418360  SOLV      2530            0.0000000000
      7562      2494  TIP3      OH2            40.8349964810       31.7406867438       28.7031118360  SOLV      2531            0.0000000000
      7563      2494  TIP3      H1             40.4655164810       30.9387367438       28.3335418360  SOLV      2531            0.0000000000
      7564      2494  TIP3      H2             41.7761064810       31.5721767438       28.7494518360  SOLV      2531            0.0000000000
      7565      2495  TIP3      OH2            37.4450464810       25.4009467438       24.0959918360  SOLV      2532            0.0000000000
      7566      2495  TIP3      H1             36.9973864810       26.2468167438       24.0776418360  SOLV      2532            0.0000000000
      7567      2495  TIP3      H2             36.8841664810       24.8213667438       23.5805018360  SOLV      2532            0.0000000000
      7568      2496  TIP3      OH2            38.1556564810       27.5629067438       26.2217918360  SOLV      2533            0.0000000000
      7569      2496  TIP3      H1             38.3690064810       26.7930667438       26.7490918360  SOLV      2533            0.0000000000
      7570      2496  TIP3      H2             38.8934164810       27.6525767438       25.6185518360  SOLV      2533            0.0000000000
      7571      2497  TIP3      OH2            48.3607564810       35.7197967438       27.0887618360  SOLV      2534            0.0000000000
      7572      2497  TIP3      H1             48.9803964810       35.0432667438       26.8156818360  SOLV      2534            0.0000000000
      7573      2497  TIP3      H2             48.1524964810       35.5018767438       27.9972518360  SOLV      2534            0.0000000000
      7574      2498  TIP3      OH2            45.9326264810       30.1087267438       28.9813118360  SOLV      2535            0.0000000000
      7575      2498  TIP3      H1             46.2364164810       29.4228667438       28.3867218360  SOLV      2535            0.0000000000
      7576      2498  TIP3      H2             46.6540264810       30.2275967438       29.5991118360  SOLV      2535            0.0000000000
      7577      2499  TIP3      OH2            49.0733264810       24.5029667438       29.3087918360  SOLV      2536            0.0000000000
      7578      2499  TIP3      H1             49.2159164810       23.5566667438       29.3289518360  SOLV      2536            0.0000000000
      7579      2499  TIP3      H2             48.9672264810       24.7099467438       28.3802818360  SOLV      2536            0.0000000000
      7580      2500  TIP3      OH2            42.2281564810       22.6046067438       26.5812718360  SOLV      2537            0.0000000000
      7581      2500  TIP3      H1             42.2712664810       23.4644567438       26.1629018360  SOLV      2537            0.0000000000
      7582      2500  TIP3      H2             41.7705664810       22.0520767438       25.9475918360  SOLV      2537            0.0000000000
      7583      2501  TIP3      OH2            38.8483064810       25.0011867438       27.3434118360  SOLV      2538            0.0000000000
      7584      2501  TIP3      H1             39.5019664810       24.4513567438       27.7754218360  SOLV      2538            0.0000000000
      7585      2501  TIP3      H2             38.8722364810       24.7270867438       26.4266118360  SOLV      2538            0.0000000000
      7586      2502  TIP3      OH2            44.0047564810       26.5513167438       26.5585618360  SOLV      2539            0.0000000000
      7587      2502  TIP3      H1             44.6208564810       26.0248567438       27.0679618360  SOLV      2539            0.0000000000
      7588      2502  TIP3      H2             43.4186364810       25.9111867438       26.1549218360  SOLV      2539            0.0000000000
      7589      2503  TIP3      OH2            41.0383464810       21.5224467438       30.6553518360  SOLV      2540            0.0000000000
      7590      2503  TIP3      H1             40.8195164810       22.0525067438       29.8889518360  SOLV      2540            0.0000000000
      7591      2503  TIP3      H2             40.3704364810       21.7489967438       31.3024918360  SOLV      2540            0.0000000000
      7592      2504  TIP3      OH2            48.4073264810       31.0225567438       24.1992618360  SOLV      2541            0.0000000000
      7593      2504  TIP3      H1             48.1118364810       30.6997867438       23.3479518360  SOLV      2541            0.0000000000
      7594      2504  TIP3      H2             48.0831064810       31.9222267438       24.2405218360  SOLV      2541            0.0000000000
      7595      2505  TIP3      OH2            43.6074864810       29.1980167438       30.9427218360  SOLV      2542            0.0000000000
      7596      2505  TIP3      H1             42.8673964810       29.7961667438       31.0462418360  SOLV      2542            0.0000000000
      7597      2505  TIP3      H2             44.3214364810       29.7519767438       30.6270818360  SOLV      2542            0.0000000000
      7598      2506  TIP3      OH2            40.6320764810       23.4146267438       28.6075718360  SOLV      2543            0.0000000000
      7599      2506  TIP3      H1             41.2457064810       24.0473867438       28.9808118360  SOLV      2543            0.0000000000
      7600      2506  TIP3      H2             41.1441464810       22.9421267438       27.9512618360  SOLV      2543            0.0000000000
      7601      2507  TIP3      OH2            42.0149164810       31.1623167438       31.7298718360  SOLV      2544            0.0000000000
      7602      2507  TIP3      H1             42.0096764810       32.0416667438       31.3518018360  SOLV      2544            0.0000000000
      7603      2507  TIP3      H2             41.1613264810       31.0787267438       32.1548618360  SOLV      2544            0.0000000000
      7604      2508  TIP3      OH2            38.1360064810       30.8331067438       22.5118018360  SOLV      2545            0.0000000000
      7605      2508  TIP3      H1             37.8640964810       31.0622067438       21.6230918360  SOLV      2545            0.0000000000
      7606      2508  TIP3      H2             38.1815764810       31.6709867438       22.9723318360  SOLV      2545            0.0000000000
      7607      2509  TIP3      OH2            45.0648164810       18.8279567438       28.1078418360  SOLV      2546            0.0000000000
      7608      2509  TIP3      H1             44.9472364810       17.8795567438       28.0536718360  SOLV      2546            0.0000000000
      7609      2509  TIP3      H2             44.2098264810       19.1605667438       28.3809518360  SOLV      2546            0.0000000000
      7610      2510  TIP3      OH2            47.3313064810       27.6655167438       22.6084218360  SOLV      2547            0.0000000000
      7611      2510  TIP3      H1             46.6198564810       28.2004867438       22.2564718360  SOLV      2547            0.0000000000
      7612      2510  TIP3      H2             48.0222664810       27.7207267438       21.9483118360  SOLV      2547            0.0000000000
      7613      2511  TIP3      OH2            47.3852264810       26.1229467438       19.6469218360  SOLV      2548            0.0000000000
      7614      2511  TIP3      H1             48.0862164810       26.1456367438       20.2983218360  SOLV      2548            0.0000000000
      7615      2511  TIP3      H2             47.6875164810       25.4949167438       18.9908518360  SOLV      2548            0.0000000000
      7616      2512  TIP3      OH2            42.3824464810       28.5054667438       25.4425118360  SOLV      2549            0.0000000000
      7617      2512  TIP3      H1             42.0519664810       28.1348067438       24.6242118360  SOLV      2549            0.0000000000
      7618      2512  TIP3      H2             42.9708564810       27.8348667438       25.7893418360  SOLV      2549            0.0000000000
      7619      2513  TIP3      OH2            43.7491964810       31.9335267438       28.1237318360  SOLV      2550            0.0000000000
      7620      2513  TIP3      H1             43.6543264810       31.3548367438       27.3671918360  SOLV      2550            0.0000000000
      7621      2513  TIP3      H2             44.4785564810       31.5620967438       28.6200118360  SOLV      2550            0.0000000000
      7622      2514  TIP3      OH2            42.7489964810       27.2740267438       29.0760118360  SOLV      2551            0.0000000000
      7623      2514  TIP3      H1             43.3142464810       27.3954467438       28.3131318360  SOLV      2551            0.0000000000
      7624      2514  TIP3      H2             43.0678864810       27.9115267438       29.7148618360  SOLV      2551            0.0000000000
      7625      2515  TIP3      OH2            49.0582164810       32.7772167438       29.8100618360  SOLV      2552            0.0000000000
      7626      2515  TIP3      H1             48.8178764810       33.4395267438       30.4579818360  SOLV      2552            0.0000000000
      7627      2515  TIP3      H2             48.8600364810       31.9427367438       30.2350218360  SOLV      2552            0.0000000000
      7628      2516  TIP3      OH2            43.6290664810       31.6732967438       33.7932018360  SOLV      2553            0.0000000000
      7629      2516  TIP3      H1             43.3178164810       32.4556167438       34.2485218360  SOLV      2553            0.0000000000
      7630      2516  TIP3      H2             42.9790864810       31.5202067438       33.1074018360  SOLV      2553            0.0000000000
      7631      2517  TIP3      OH2            49.6080264810       27.0371367438       21.2451318360  SOLV      2554            0.0000000000
      7632      2517  TIP3      H1             50.1875764810       27.1871667438       21.9920218360  SOLV      2554            0.0000000000
      7633      2517  TIP3      H2             50.0220264810       27.5078767438       20.5217718360  SOLV      2554            0.0000000000
      7634      2518  TIP3      OH2            40.5490564810       27.8714067438       33.0217718360  SOLV      2555            0.0000000000
      7635      2518  TIP3      H1             40.6193764810       28.5220867438       33.7202718360  SOLV      2555            0.0000000000
      7636      2518  TIP3      H2             39.6582764810       27.9741567438       32.6868618360  SOLV      2555            0.0000000000
      7637      2519  TIP3      OH2            47.3345164810       33.7739867438       24.6804418360  SOLV      2556            0.0000000000
      7638      2519  TIP3      H1             47.8082764810       34.0696167438       25.4578618360  SOLV      2556            0.0000000000
      7639      2519  TIP3      H2             46.7714464810       34.5121467438       24.4474018360  SOLV      2556            0.0000000000
      7640      2520  TIP3      OH2            41.8686564810       33.7447967438       34.5565818360  SOLV      2557            0.0000000000
      7641      2520  TIP3      H1             41.8761864810       33.6087667438       33.6091318360  SOLV      2557            0.0000000000
      7642      2520  TIP3      H2             40.9526964810       33.6276067438       34.8085818360  SOLV      2557            0.0000000000
      7643      2521  TIP3      OH2            41.3727164810       27.5748967438       23.0317918360  SOLV      2558            0.0000000000
      7644      2521  TIP3      H1             41.0808464810       28.3430667438       22.5409218360  SOLV      2558            0.0000000000
      7645      2521  TIP3      H2             40.6982364810       26.9155167438       22.8689318360  SOLV      2558            0.0000000000
      7646      2522  TIP3      OH2            37.4657264810       29.9378167438       31.8467718360  SOLV      2559            0.0000000000
      7647      2522  TIP3      H1             36.9645664810       29.9097567438       31.0317418360  SOLV      2559            0.0000000000
      7648      2522  TIP3      H2             37.4710964810       29.0321367438       32.1565018360  SOLV      2559            0.0000000000
      7649      2523  TIP3      OH2            37.2159964810       32.7181967438       28.7307918360  SOLV      2560            0.0000000000
      7650      2523  TIP3      H1             38.1620564810       32.5738967438       28.7117418360  SOLV      2560            0.0000000000
      7651      2523  TIP3      H2             37.1036264810       33.5024767438       29.2679118360  SOLV      2560            0.0000000000
      7652      2524  TIP3      OH2            46.3922464810       32.9580867438       33.2893018360  SOLV      2561            0.0000000000
      7653      2524  TIP3      H1             46.4797064810       33.7845467438       33.7642118360  SOLV      2561            0.0000000000
      7654      2524  TIP3      H2             45.5287564810       32.6284667438       33.5382318360  SOLV      2561            0.0000000000
      7655      2525  TIP3      OH2            46.8068264810       36.7304567438       23.0953618360  SOLV      2562            0.0000000000
      7656      2525  TIP3      H1             46.7314264810       36.6091767438       22.1488818360  SOLV      2562            0.0000000000
      7657      2525  TIP3      H2             46.8396964810       37.6797267438       23.2138218360  SOLV      2562            0.0000000000
      7658      2526  TIP3      OH2            40.4602064810       35.5191567438       24.8762618360  SOLV      2563            0.0000000000
      7659      2526  TIP3      H1             40.6122464810       35.1711967438       25.7549118360  SOLV      2563            0.0000000000
      7660      2526  TIP3      H2             39.6092464810       35.1628867438       24.6209818360  SOLV      2563            0.0000000000
      7661      2527  TIP3      OH2            49.5772364810       35.8101867438       22.8468218360  SOLV      2564            0.0000000000
      7662      2527  TIP3      H1             48.6422164810       35.9103767438       23.0255218360  SOLV      2564            0.0000000000
      7663      2527  TIP3      H2             49.8574264810       35.1007867438       23.4251418360  SOLV      2564            0.0000000000
      7664      2528  TIP3      OH2            39.7147764810       31.2613567438       32.8900518360  SOLV      2565            0.0000000000
      7665      2528  TIP3      H1             39.9309064810       30.8999167438       33.7496318360  SOLV      2565            0.0000000000
      7666      2528  TIP3      H2             38.8592464810       30.8867367438       32.6804018360  SOLV      2565            0.0000000000
      7667      2529  TIP3      OH2            42.3335764810       19.7314067438       28.8854718360  SOLV      2566            0.0000000000
      7668      2529  TIP3      H1             41.4719464810       19.6442267438       28.4777618360  SOLV      2566            0.0000000000
      7669      2529  TIP3      H2             42.3111464810       20.5874167438       29.3132318360  SOLV      2566            0.0000000000
      7670      2530  TIP3      OH2            46.9963564810       19.4534467438       32.2601718360  SOLV      2567            0.0000000000
      7671      2530  TIP3      H1             47.4166664810       19.0381567438       33.0132318360  SOLV      2567            0.0000000000
      7672      2530  TIP3      H2             46.0633164810       19.2747767438       32.3773718360  SOLV      2567            0.0000000000
      7673      2531  TIP3      OH2            46.6580864810       21.9457867438       19.5452518360  SOLV      2568            0.0000000000
      7674      2531  TIP3      H1             46.4045664810       21.9649467438       20.4680618360  SOLV      2568            0.0000000000
      7675      2531  TIP3      H2             46.4012964810       21.0743267438       19.2438718360  SOLV      2568            0.0000000000
      7676      2532  TIP3      OH2            42.4245864810       24.6968567438       29.9804918360  SOLV      2569            0.0000000000
      7677      2532  TIP3      H1             41.7827964810       24.6565867438       30.6895018360  SOLV      2569            0.0000000000
      7678      2532  TIP3      H2             42.4617864810       25.6233267438       29.7427918360  SOLV      2569            0.0000000000
      7679      2533  TIP3      OH2            42.4214964810       24.9178667438       24.8924918360  SOLV      2570            0.0000000000
      7680      2533  TIP3      H1             41.5287864810       24.5774767438       24.8338718360  SOLV      2570            0.0000000000
      7681      2533  TIP3      H2             42.8721564810       24.5409567438       24.1368118360  SOLV      2570            0.0000000000
      7682      2534  TIP3      OH2            47.9570464810       25.3338967438       23.7095718360  SOLV      2571            0.0000000000
      7683      2534  TIP3      H1             47.5480764810       26.1487567438       23.4180518360  SOLV      2571            0.0000000000
      7684      2534  TIP3      H2             48.6776664810       25.1939067438       23.0952818360  SOLV      2571            0.0000000000
      7685      2535  TIP3      OH2            47.0592064810       25.5095367438       35.1976418360  SOLV      2572            0.0000000000
      7686      2535  TIP3      H1             46.4965864810       24.8046967438       35.5184218360  SOLV      2572            0.0000000000
      7687      2535  TIP3      H2             47.8855464810       25.3887267438       35.6654018360  SOLV      2572            0.0000000000
      7688      2536  TIP3      OH2            48.9618164810       24.7799367438       26.5235418360  SOLV      2573            0.0000000000
      7689      2536  TIP3      H1             48.7662664810       25.3856167438       25.8086018360  SOLV      2573            0.0000000000
      7690      2536  TIP3      H2             49.1430764810       23.9464567438       26.0891718360  SOLV      2573            0.0000000000
      7691      2537  TIP3      OH2            40.1746364810       25.0172067438       31.8476918360  SOLV      2574            0.0000000000
      7692      2537  TIP3      H1             40.1365764810       25.4173667438       32.7164018360  SOLV      2574            0.0000000000
      7693      2537  TIP3      H2             39.6837464810       24.2004467438       31.9379818360  SOLV      2574            0.0000000000
      7694      2538  TIP3      OH2            43.5403764810       22.3914367438       18.6462918360  SOLV      2575            0.0000000000
      7695      2538  TIP3      H1             43.1094464810       21.9464467438       19.3760318360  SOLV      2575            0.0000000000
      7696      2538  TIP3      H2             42.8222464810       22.7630667438       18.1340418360  SOLV      2575            0.0000000000
      7697      2539  TIP3      OH2            36.7827164810       22.1333867438       25.6981618360  SOLV      2576            0.0000000000
      7698      2539  TIP3      H1             37.4134864810       22.1045967438       26.4175518360  SOLV      2576            0.0000000000
      7699      2539  TIP3      H2             37.2321464810       21.7082567438       24.9677518360  SOLV      2576            0.0000000000
      7700      2540  TIP3      OH2            38.0569264810       22.8795867438       21.1222018360  SOLV      2577            0.0000000000
      7701      2540  TIP3      H1             38.5310964810       23.4705767438       20.5372918360  SOLV      2577            0.0000000000
      7702      2540  TIP3      H2             37.3395664810       23.4098767438       21.4692118360  SOLV      2577            0.0000000000
      7703      2541  TIP3      OH2            48.2257364810       26.4180667438       31.1947818360  SOLV      2578            0.0000000000
      7704      2541  TIP3      H1             48.5492164810       25.7870367438       30.5518318360  SOLV      2578            0.0000000000
      7705      2541  TIP3      H2             47.7856664810       25.8832867438       31.8555218360  SOLV      2578            0.0000000000
      7706      2542  TIP3      OH2            45.0030264810       22.3456167438       25.9789018360  SOLV      2579            0.0000000000
      7707      2542  TIP3      H1             44.0921364810       22.4022967438       26.2675018360  SOLV      2579            0.0000000000
      7708      2542  TIP3      H2             45.5083164810       22.2851667438       26.7896218360  SOLV      2579            0.0000000000
      7709      2543  TIP3      OH2            39.8313664810       23.9742467438       24.8056618360  SOLV      2580            0.0000000000
      7710      2543  TIP3      H1             38.9421664810       24.0737967438       24.4656218360  SOLV      2580            0.0000000000
      7711      2543  TIP3      H2             40.1278564810       23.1325467438       24.4594518360  SOLV      2580            0.0000000000
      7712      2544  TIP3      OH2            43.4845464810       23.9745067438       22.4621218360  SOLV      2581            0.0000000000
      7713      2544  TIP3      H1             44.4160964810       24.1035067438       22.6404318360  SOLV      2581            0.0000000000
      7714      2544  TIP3      H2             43.2695764810       24.6439367438       21.8125918360  SOLV      2581            0.0000000000
      7715      2545  TIP3      OH2            49.4082164810       21.5802467438       29.2430818360  SOLV      2582            0.0000000000
      7716      2545  TIP3      H1             48.7313764810       21.7115567438       29.9070518360  SOLV      2582            0.0000000000
      7717      2545  TIP3      H2             48.9227064810       21.4251967438       28.4328518360  SOLV      2582            0.0000000000
      7718      2546  TIP3      OH2            42.1585664810       25.1687267438       20.0287318360  SOLV      2583            0.0000000000
      7719      2546  TIP3      H1             41.6160764810       24.7891067438       19.3374918360  SOLV      2583            0.0000000000
      7720      2546  TIP3      H2             42.9920564810       25.3631967438       19.6001418360  SOLV      2583            0.0000000000
      7721      2547  TIP3      OH2            40.2937064810       29.7259167438       35.1278918360  SOLV      2584            0.0000000000
      7722      2547  TIP3      H1             41.0259464810       29.9805067438       35.6893418360  SOLV      2584            0.0000000000
      7723      2547  TIP3      H2             39.5135764810       29.9304567438       35.6434318360  SOLV      2584            0.0000000000
      7724      2548  TIP3      OH2            46.3229964810       25.1329167438       27.8658618360  SOLV      2585            0.0000000000
      7725      2548  TIP3      H1             46.8873364810       24.5865767438       27.3188218360  SOLV      2585            0.0000000000
      7726      2548  TIP3      H2             46.1753364810       24.6111067438       28.6546218360  SOLV      2585            0.0000000000
      7727      2549  TIP3      OH2            41.3249664810       21.2695267438       24.2843418360  SOLV      2586            0.0000000000
      7728      2549  TIP3      H1             41.0079164810       20.3670567438       24.2488818360  SOLV      2586            0.0000000000
      7729      2549  TIP3      H2             42.1063764810       21.2712667438       23.7315018360  SOLV      2586            0.0000000000
      7730      2550  TIP3      OH2            44.9495864810       23.5215267438       30.2799018360  SOLV      2587            0.0000000000
      7731      2550  TIP3      H1             44.1141164810       23.9754767438       30.3901418360  SOLV      2587            0.0000000000
      7732      2550  TIP3      H2             45.4736464810       23.7973767438       31.0318918360  SOLV      2587            0.0000000000
      7733      2551  TIP3      OH2            45.4938464810       29.7342967438       21.9645418360  SOLV      2588            0.0000000000
      7734      2551  TIP3      H1             44.7489464810       29.2268267438       21.6423318360  SOLV      2588            0.0000000000
      7735      2551  TIP3      H2             45.3595664810       29.7830967438       22.9110218360  SOLV      2588            0.0000000000
      7736      2552  TIP3      OH2            49.3915264810       22.5482867438       20.1638018360  SOLV      2589            0.0000000000
      7737      2552  TIP3      H1             48.4529464810       22.6598467438       20.0126818360  SOLV      2589            0.0000000000
      7738      2552  TIP3      H2             49.6887364810       23.4049767438       20.4703718360  SOLV      2589            0.0000000000
      7739      2553  TIP3      OH2            47.0130564810       29.9186267438       33.2014518360  SOLV      2590            0.0000000000
      7740      2553  TIP3      H1             46.6676664810       29.5368667438       34.0084118360  SOLV      2590            0.0000000000
      7741      2553  TIP3      H2             46.8130664810       30.8519867438       33.2727418360  SOLV      2590            0.0000000000
      7742      2554  TIP3      OH2            40.6186764810       29.0292967438       27.7343318360  SOLV      2591            0.0000000000
      7743      2554  TIP3      H1             41.3633964810       29.0268667438       27.1329818360  SOLV      2591            0.0000000000
      7744      2554  TIP3      H2             40.6963364810       28.2056767438       28.2158418360  SOLV      2591            0.0000000000
      7745      2555  TIP3      OH2            47.6192564810       31.1927267438       20.9900018360  SOLV      2592            0.0000000000
      7746      2555  TIP3      H1             47.3240964810       32.0195167438       21.3714818360  SOLV      2592            0.0000000000
      7747      2555  TIP3      H2             46.9162564810       30.5734167438       21.1861418360  SOLV      2592            0.0000000000
      7748      2556  TIP3      OH2            37.6266464810       27.4899867438       33.0491818360  SOLV      2593            0.0000000000
      7749      2556  TIP3      H1             37.8495064810       27.0719467438       33.8809318360  SOLV      2593            0.0000000000
      7750      2556  TIP3      H2             37.0246564810       26.8774867438       32.6264618360  SOLV      2593            0.0000000000
      7751      2557  TIP3      OH2            44.6431364810       27.0069767438       35.2621518360  SOLV      2594            0.0000000000
      7752      2557  TIP3      H1             44.3472164810       26.8412767438       34.3670618360  SOLV      2594            0.0000000000
      7753      2557  TIP3      H2             45.5746564810       26.7870067438       35.2515418360  SOLV      2594            0.0000000000
      7754      2558  TIP3      OH2            49.2634164810       32.3801767438       33.1519518360  SOLV      2595            0.0000000000
      7755      2558  TIP3      H1             48.3628464810       32.5634367438       32.8843418360  SOLV      2595            0.0000000000
      7756      2558  TIP3      H2             49.2975264810       32.6391067438       34.0728318360  SOLV      2595            0.0000000000
      7757      2559  TIP3      OH2            42.9936164810       32.5471167438       25.1384818360  SOLV      2596            0.0000000000
      7758      2559  TIP3      H1             43.5208364810       33.3205567438       24.9383618360  SOLV      2596            0.0000000000
      7759      2559  TIP3      H2             42.1134664810       32.7720367438       24.8368818360  SOLV      2596            0.0000000000
      7760      2560  TIP3      OH2            38.7483864810       27.4095267438       19.7257218360  SOLV      2597            0.0000000000
      7761      2560  TIP3      H1             39.3643764810       28.0362467438       20.1052018360  SOLV      2597            0.0000000000
      7762      2560  TIP3      H2             37.8866464810       27.7255067438       19.9973718360  SOLV      2597            0.0000000000
      7763      2561  TIP3      OH2            44.4208464810       30.2101067438       24.7149118360  SOLV      2598            0.0000000000
      7764      2561  TIP3      H1             44.1798464810       31.1355467438       24.7564418360  SOLV      2598            0.0000000000
      7765      2561  TIP3      H2             43.6802064810       29.7512367438       25.1113018360  SOLV      2598            0.0000000000
      7766      2562  TIP3      OH2            44.9355064810       34.3594667438       31.0300218360  SOLV      2599            0.0000000000
      7767      2562  TIP3      H1             45.2979764810       35.2140267438       30.7964618360  SOLV      2599            0.0000000000
      7768      2562  TIP3      H2             45.4670264810       34.0676267438       31.7706518360  SOLV      2599            0.0000000000
      7769      2563  TIP3      OH2            43.1039264810       35.2318667438       24.2601318360  SOLV      2600            0.0000000000
      7770      2563  TIP3      H1             42.1539764810       35.3376067438       24.3114618360  SOLV      2600            0.0000000000
      7771      2563  TIP3      H2             43.4557364810       36.0526067438       24.6048818360  SOLV      2600            0.0000000000
      7772      2564  TIP3      OH2            48.4795864810       30.4585367438       30.7305818360  SOLV      2601            0.0000000000
      7773      2564  TIP3      H1             48.0537164810       30.2307067438       31.5569818360  SOLV      2601            0.0000000000
      7774      2564  TIP3      H2             49.0601664810       29.7197167438       30.5481118360  SOLV      2601            0.0000000000
      7775      2565  TIP3      OH2            39.2605964810       22.2432567438       32.6073218360  SOLV      2602            0.0000000000
      7776      2565  TIP3      H1             38.3678264810       22.5817967438       32.5397218360  SOLV      2602            0.0000000000
      7777      2565  TIP3      H2             39.1618764810       21.3878667438       33.0254018360  SOLV      2602            0.0000000000
      7778      2566  TIP3      OH2            38.9117964810       34.0476967438       31.0422618360  SOLV      2603            0.0000000000
      7779      2566  TIP3      H1             39.1288264810       33.1159367438       31.0112318360  SOLV      2603            0.0000000000
      7780      2566  TIP3      H2             39.1581464810       34.3221967438       31.9255418360  SOLV      2603            0.0000000000
      7781      2567  TIP3      OH2            44.7732564810       32.4991967438       18.2514818360  SOLV      2604            0.0000000000
      7782      2567  TIP3      H1             45.0122364810       31.7510067438       17.7043718360  SOLV      2604            0.0000000000
      7783      2567  TIP3      H2             44.5043864810       32.1113667438       19.0842618360  SOLV      2604            0.0000000000
      7784      2568  TIP3      OH2            43.7103164810       32.0695767438       20.7077418360  SOLV      2605            0.0000000000
      7785      2568  TIP3      H1             43.8571164810       31.5495567438       21.4978318360  SOLV      2605            0.0000000000
      7786      2568  TIP3      H2             43.7074864810       32.9763367438       21.0143318360  SOLV      2605            0.0000000000
      7787      2569  TIP3      OH2            40.1634264810       29.3219067438       21.2182818360  SOLV      2606            0.0000000000
      7788      2569  TIP3      H1             39.4773564810       29.6741567438       21.7852518360  SOLV      2606            0.0000000000
      7789      2569  TIP3      H2             40.6862164810       30.0848667438       20.9717118360  SOLV      2606            0.0000000000
      7790      2570  TIP3      OH2            47.9949364810       21.9842867438       31.4971818360  SOLV      2607            0.0000000000
      7791      2570  TIP3      H1             48.6937264810       22.0581567438       32.1471518360  SOLV      2607            0.0000000000
      7792      2570  TIP3      H2             47.6140764810       21.1197867438       31.6514718360  SOLV      2607            0.0000000000
      7793      2571  TIP3      OH2            48.7794264810       21.6364567438       22.5944118360  SOLV      2608            0.0000000000
      7794      2571  TIP3      H1             48.9992564810       22.1079967438       21.7909518360  SOLV      2608            0.0000000000
      7795      2571  TIP3      H2             49.3378264810       22.0307167438       23.2644718360  SOLV      2608            0.0000000000
      7796      2572  TIP3      OH2            46.4480364810       33.7669367438       21.4571618360  SOLV      2609            0.0000000000
      7797      2572  TIP3      H1             45.6316464810       34.2639067438       21.5095918360  SOLV      2609            0.0000000000
      7798      2572  TIP3      H2             46.9776664810       34.2422867438       20.8170418360  SOLV      2609            0.0000000000
      7799      2573  TIP3      OH2            45.9794164810       23.3643367438       23.4292518360  SOLV      2610            0.0000000000
      7800      2573  TIP3      H1             46.7916764810       23.8686567438       23.4754218360  SOLV      2610            0.0000000000
      7801      2573  TIP3      H2             45.7347164810       23.2193067438       24.3432118360  SOLV      2610            0.0000000000
      7802      2574  TIP3      OH2            46.5150564810       24.3506067438       32.6139118360  SOLV      2611            0.0000000000
      7803      2574  TIP3      H1             46.6340864810       24.9241467438       33.3709518360  SOLV      2611            0.0000000000
      7804      2574  TIP3      H2             47.1705164810       23.6625467438       32.7286918360  SOLV      2611            0.0000000000
      7805      2575  TIP3      OH2            46.8630864810       20.4456367438       24.3673618360  SOLV      2612            0.0000000000
      7806      2575  TIP3      H1             46.5164364810       21.0626967438       25.0117918360  SOLV      2612            0.0000000000
      7807      2575  TIP3      H2             47.5217764810       20.9462067438       23.8859118360  SOLV      2612            0.0000000000
      7808      2576  TIP3      OH2            43.7863464810       34.8106567438       21.4388518360  SOLV      2613            0.0000000000
      7809      2576  TIP3      H1             43.9472164810       35.6104067438       20.9381118360  SOLV      2613            0.0000000000
      7810      2576  TIP3      H2             43.5891264810       35.1172567438       22.3239118360  SOLV      2613            0.0000000000
      7811      2577  TIP3      OH2            42.5207864810       21.5085767438       21.0546118360  SOLV      2614            0.0000000000
      7812      2577  TIP3      H1             42.4372664810       22.3968867438       21.4012518360  SOLV      2614            0.0000000000
      7813      2577  TIP3      H2             43.4108164810       21.2432467438       21.2862918360  SOLV      2614            0.0000000000
      7814      2578  TIP3      OH2            40.7793164810       31.9357967438       20.1150618360  SOLV      2615            0.0000000000
      7815      2578  TIP3      H1             41.3714664810       32.6352767438       20.3913018360  SOLV      2615            0.0000000000
      7816      2578  TIP3      H2             41.2386164810       31.5027467438       19.3955218360  SOLV      2615            0.0000000000
      7817      2579  TIP3      OH2            39.0952364810       24.6000967438       19.2310018360  SOLV      2616            0.0000000000
      7818      2579  TIP3      H1             39.0504964810       25.5394067438       19.4097018360  SOLV      2616            0.0000000000
      7819      2579  TIP3      H2             38.2075564810       24.3645867438       18.9612118360  SOLV      2616            0.0000000000
      7820      2580  TIP3      OH2            39.9034364810       19.3817567438       27.9041018360  SOLV      2617            0.0000000000
      7821      2580  TIP3      H1             39.6744164810       19.4410067438       26.9766018360  SOLV      2617            0.0000000000
      7822      2580  TIP3      H2             39.4607764810       18.5903067438       28.2105118360  SOLV      2617            0.0000000000
      7823      2581  TIP3      OH2            38.8337664810       33.3224667438       24.0646818360  SOLV      2618            0.0000000000
      7824      2581  TIP3      H1             38.0016264810       33.7947367438       24.0918218360  SOLV      2618            0.0000000000
      7825      2581  TIP3      H2             39.3795964810       33.8322267438       23.4659918360  SOLV      2618            0.0000000000
      7826      2582  TIP3      OH2            38.1221364810       35.9348367438       35.3944818360  SOLV      2619            0.0000000000
      7827      2582  TIP3      H1             38.6623564810       35.7182367438       36.1544018360  SOLV      2619            0.0000000000
      7828      2582  TIP3      H2             37.6409364810       35.1294367438       35.2047318360  SOLV      2619            0.0000000000
      7829      2583  TIP3      OH2            42.7194764810       34.8542767438       37.0149018360  SOLV      2620            0.0000000000
      7830      2583  TIP3      H1             43.4871964810       34.3953567438       37.3558218360  SOLV      2620            0.0000000000
      7831      2583  TIP3      H2             42.6980964810       34.6282567438       36.0850218360  SOLV      2620            0.0000000000
      7832      2584  TIP3      OH2            46.8114364810       34.3623367438       18.3900818360  SOLV      2621            0.0000000000
      7833      2584  TIP3      H1             46.1675364810       33.7311967438       18.7114518360  SOLV      2621            0.0000000000
      7834      2584  TIP3      H2             47.5732664810       33.8311367438       18.1584318360  SOLV      2621            0.0000000000
      7835      2585  TIP3      OH2            49.2963464810       33.2343867438       35.7440518360  SOLV      2622            0.0000000000
      7836      2585  TIP3      H1             48.9452964810       32.3776867438       35.9870918360  SOLV      2622            0.0000000000
      7837      2585  TIP3      H2             50.0226664810       33.3770567438       36.3509518360  SOLV      2622            0.0000000000
      7838      2586  TIP3      OH2            38.0290864810       29.7452467438       36.3489118360  SOLV      2623            0.0000000000
      7839      2586  TIP3      H1             38.1731364810       28.8433167438       36.0625818360  SOLV      2623            0.0000000000
      7840      2586  TIP3      H2             37.2568264810       30.0314567438       35.8611418360  SOLV      2623            0.0000000000
      7841      2587  TIP3      OH2            42.3704564810       30.0888167438       18.4813718360  SOLV      2624            0.0000000000
      7842      2587  TIP3      H1             42.4348664810       29.2947767438       19.0120118360  SOLV      2624            0.0000000000
      7843      2587  TIP3      H2             43.0233764810       29.9700967438       17.7915718360  SOLV      2624            0.0000000000
      7844      2588  TIP3      OH2            44.6846964810       29.7150567438       35.7815518360  SOLV      2625            0.0000000000
      7845      2588  TIP3      H1             44.3560764810       29.9858667438       34.9242918360  SOLV      2625            0.0000000000
      7846      2588  TIP3      H2             44.8365164810       28.7740367438       35.6940518360  SOLV      2625            0.0000000000
      7847      2589  TIP3      OH2            47.7227964810       31.1359867438       18.2171718360  SOLV      2626            0.0000000000
      7848      2589  TIP3      H1             47.4542064810       31.3161967438       19.1180618360  SOLV      2626            0.0000000000
      7849      2589  TIP3      H2             47.5163564810       30.2106067438       18.0857518360  SOLV      2626            0.0000000000
      7850      2590  TIP3      OH2            38.8617364810       26.9455767438       35.7688418360  SOLV      2627            0.0000000000
      7851      2590  TIP3      H1             39.2698564810       26.0882367438       35.6479018360  SOLV      2627            0.0000000000
      7852      2590  TIP3      H2             38.6014964810       26.9597067438       36.6898718360  SOLV      2627            0.0000000000
      7853      2591  TIP3      OH2            43.5198364810       28.0614367438       20.7871718360  SOLV      2628            0.0000000000
      7854      2591  TIP3      H1             43.0600364810       27.5772667438       21.4730218360  SOLV      2628            0.0000000000
      7855      2591  TIP3      H2             43.7747064810       27.3929767438       20.1512218360  SOLV      2628            0.0000000000
      7856      2592  TIP3      OH2            42.8087664810       25.9541467438       33.1431318360  SOLV      2629            0.0000000000
      7857      2592  TIP3      H1             42.1903764810       26.6288067438       33.4236018360  SOLV      2629            0.0000000000
      7858      2592  TIP3      H2             43.1528864810       26.2755367438       32.3097518360  SOLV      2629            0.0000000000
      7859      2593  TIP3      OH2            44.5908764810       26.3046167438       19.0494918360  SOLV      2630            0.0000000000
      7860      2593  TIP3      H1             44.4103764810       26.1497367438       18.1223218360  SOLV      2630            0.0000000000
      7861      2593  TIP3      H2             45.5409264810       26.4124867438       19.0942818360  SOLV      2630            0.0000000000
      7862      2594  TIP3      OH2            47.8285864810       28.4256767438       36.4206118360  SOLV      2631            0.0000000000
      7863      2594  TIP3      H1             48.7817064810       28.5095867438       36.3932118360  SOLV      2631            0.0000000000
      7864      2594  TIP3      H2             47.6680464810       27.7138567438       37.0401018360  SOLV      2631            0.0000000000
      7865      2595  TIP3      OH2            43.1481364810       23.3092267438       34.2254418360  SOLV      2632            0.0000000000
      7866      2595  TIP3      H1             43.2982264810       22.5803567438       33.6234118360  SOLV      2632            0.0000000000
      7867      2595  TIP3      H2             43.1503764810       24.0863967438       33.6666618360  SOLV      2632            0.0000000000
      7868      2596  TIP3      OH2            43.5607064810       21.6788067438       31.7181818360  SOLV      2633            0.0000000000
      7869      2596  TIP3      H1             44.0964564810       22.1304767438       31.0661118360  SOLV      2633            0.0000000000
      7870      2596  TIP3      H2             42.7086664810       21.5707867438       31.2955918360  SOLV      2633            0.0000000000
      7871      2597  TIP3      OH2            45.1425464810       27.1184267438       31.9577018360  SOLV      2634            0.0000000000
      7872      2597  TIP3      H1             45.8930264810       26.9621767438       31.3844818360  SOLV      2634            0.0000000000
      7873      2597  TIP3      H2             44.8033764810       27.9700867438       31.6822518360  SOLV      2634            0.0000000000
      7874      2598  TIP3      OH2            49.5581664810       24.9336067438       36.9862318360  SOLV      2635            0.0000000000
      7875      2598  TIP3      H1             49.7502964810       24.0025467438       36.8746818360  SOLV      2635            0.0000000000
      7876      2598  TIP3      H2             50.4157964810       25.3585567438       36.9757718360  SOLV      2635            0.0000000000
      7877      2599  TIP3      OH2            41.6267664810       24.5075767438       36.1370018360  SOLV      2636            0.0000000000
      7878      2599  TIP3      H1             40.8596664810       23.9750567438       35.9267618360  SOLV      2636            0.0000000000
      7879      2599  TIP3      H2             42.3056664810       24.1976167438       35.5376318360  SOLV      2636            0.0000000000
      7880      2600  TIP3      OH2            44.3662564810       19.1353767438       32.1495418360  SOLV      2637            0.0000000000
      7881      2600  TIP3      H1             44.2682164810       20.0816967438       32.0441618360  SOLV      2637            0.0000000000
      7882      2600  TIP3      H2             43.6238764810       18.7627567438       31.6738918360  SOLV      2637            0.0000000000
      7883      2601  TIP3      OH2            45.6303064810       23.4569167438       35.7133818360  SOLV      2638            0.0000000000
      7884      2601  TIP3      H1             45.3948464810       23.2375867438       36.6148718360  SOLV      2638            0.0000000000
      7885      2601  TIP3      H2             44.8469964810       23.2500367438       35.2036318360  SOLV      2638            0.0000000000
      7886      2602  TIP3      OH2            48.3459664810       22.5842667438       34.7887318360  SOLV      2639            0.0000000000
      7887      2602  TIP3      H1             47.3985064810       22.6162367438       34.9210618360  SOLV      2639            0.0000000000
      7888      2602  TIP3      H2             48.6586364810       21.9589767438       35.4425518360  SOLV      2639            0.0000000000
      7889      2603  TIP3      OH2            49.9801164810       21.2183767438       36.7939218360  SOLV      2640            0.0000000000
      7890      2603  TIP3      H1             49.8832964810       20.2661067438       36.7881118360  SOLV      2640            0.0000000000
      7891      2603  TIP3      H2             49.6584264810       21.4870567438       37.6544718360  SOLV      2640            0.0000000000
      7892      2604  TIP3      OH2            39.8070464810       22.4279567438       35.8414718360  SOLV      2641            0.0000000000
      7893      2604  TIP3      H1             40.0187864810       21.7215667438       35.2312218360  SOLV      2641            0.0000000000
      7894      2604  TIP3      H2             39.6957964810       21.9905567438       36.6855918360  SOLV      2641            0.0000000000
      7895      2605  TIP3      OH2            44.5880664810       18.4291167438       34.8208218360  SOLV      2642            0.0000000000
      7896      2605  TIP3      H1             45.2999064810       17.7893367438       34.8067318360  SOLV      2642            0.0000000000
      7897      2605  TIP3      H2             44.4871064810       18.6959467438       33.9071318360  SOLV      2642            0.0000000000
      7898      2606  TIP3      OH2            44.9418164810       20.1119567438       36.8744518360  SOLV      2643            0.0000000000
      7899      2606  TIP3      H1             44.8100364810       19.6363367438       36.0543018360  SOLV      2643            0.0000000000
      7900      2606  TIP3      H2             44.3425564810       20.8563167438       36.8191618360  SOLV      2643            0.0000000000
      7901      2607  TIP3      OH2            44.4880464810       36.9949867438       20.0508518360  SOLV      2644            0.0000000000
      7902      2607  TIP3      H1             45.4211164810       37.1528567438       20.1946918360  SOLV      2644            0.0000000000
      7903      2607  TIP3      H2             44.2239264810       37.6702867438       19.4260018360  SOLV      2644            0.0000000000
      7904      2608  TIP3      OH2            38.0565364810       31.6313667438       19.5336618360  SOLV      2645            0.0000000000
      7905      2608  TIP3      H1             38.9704564810       31.7102567438       19.8070518360  SOLV      2645            0.0000000000
      7906      2608  TIP3      H2             38.0638464810       30.9443267438       18.8672218360  SOLV      2645            0.0000000000
      7907      2609  TIP3      OH2            36.7055964810       37.0242167438       24.6110518360  SOLV      2646            0.0000000000
      7908      2609  TIP3      H1             36.0583064810       36.5623867438       24.0781718360  SOLV      2646            0.0000000000
      7909      2609  TIP3      H2             37.0600564810       36.3525467438       25.1936718360  SOLV      2646            0.0000000000
      7910      2610  TIP3      OH2            37.5755164810       35.1049167438       26.4156718360  SOLV      2647            0.0000000000
      7911      2610  TIP3      H1             37.2411964810       34.2246467438       26.5876918360  SOLV      2647            0.0000000000
      7912      2610  TIP3      H2             37.7977564810       35.4504167438       27.2802318360  SOLV      2647            0.0000000000
      7913      2611  TIP3      OH2            37.6554664810       28.1804567438       28.8671618360  SOLV      2648            0.0000000000
      7914      2611  TIP3      H1             37.8397564810       28.0986267438       27.9314518360  SOLV      2648            0.0000000000
      7915      2611  TIP3      H2             38.5047564810       28.0561567438       29.2908018360  SOLV      2648            0.0000000000
      7916      2612  TIP3      OH2            37.2529464810       23.4509567438       35.0080418360  SOLV      2649            0.0000000000
      7917      2612  TIP3      H1             38.1724364810       23.3287867438       35.2443518360  SOLV      2649            0.0000000000
      7918      2612  TIP3      H2             36.8033964810       22.7009267438       35.3973918360  SOLV      2649            0.0000000000
      7919      2613  TIP3      OH2            38.4741964810       21.7631167438       27.8993318360  SOLV      2650            0.0000000000
      7920      2613  TIP3      H1             38.9193564810       20.9713667438       28.2013018360  SOLV      2650            0.0000000000
      7921      2613  TIP3      H2             38.9404964810       22.4796367438       28.3298918360  SOLV      2650            0.0000000000
      7922      2614  TIP3      OH2            36.7782264810       24.7624167438       28.9683518360  SOLV      2651            0.0000000000
      7923      2614  TIP3      H1             37.2702064810       24.5414667438       28.1775518360  SOLV      2651            0.0000000000
      7924      2614  TIP3      H2             37.1403164810       25.6027567438       29.2493018360  SOLV      2651            0.0000000000
      7925      2615  TIP3      OH2            37.0918764810       21.0203267438       23.0225918360  SOLV      2652            0.0000000000
      7926      2615  TIP3      H1             36.1667164810       21.2289867438       22.8931418360  SOLV      2652            0.0000000000
      7927      2615  TIP3      H2             37.5458664810       21.5044067438       22.3328218360  SOLV      2652            0.0000000000
      7928      2616  TIP3      OH2            37.0554164810       19.7582267438       31.3668418360  SOLV      2653            0.0000000000
      7929      2616  TIP3      H1             36.3904664810       19.5122567438       32.0099318360  SOLV      2653            0.0000000000
      7930      2616  TIP3      H2             36.6125464810       20.3802667438       30.7896418360  SOLV      2653            0.0000000000
      7931      2617  TIP3      OH2            39.2473464810       32.9336367438       35.5114218360  SOLV      2654            0.0000000000
      7932      2617  TIP3      H1             38.4265964810       33.1082867438       35.0508918360  SOLV      2654            0.0000000000
      7933      2617  TIP3      H2             38.9951264810       32.8601067438       36.4318618360  SOLV      2654            0.0000000000
      7934      2618  TIP3      OH2            42.2016364810       33.9077567438       31.7698218360  SOLV      2655            0.0000000000
      7935      2618  TIP3      H1             41.7767464810       34.7176067438       31.4872818360  SOLV      2655            0.0000000000
      7936      2618  TIP3      H2             43.1059164810       33.9931667438       31.4678018360  SOLV      2655            0.0000000000
      7937      2619  TIP3      OH2            46.5127764810       35.3067567438       34.7291918360  SOLV      2656            0.0000000000
      7938      2619  TIP3      H1             46.6975264810       34.9733667438       35.6072218360  SOLV      2656            0.0000000000
      7939      2619  TIP3      H2             47.3592264810       35.6166167438       34.4071118360  SOLV      2656            0.0000000000
      7940      2620  TIP3      OH2            48.8578164810       36.5926467438       33.9733318360  SOLV      2657            0.0000000000
      7941      2620  TIP3      H1             49.5347064810       35.9598767438       33.7332518360  SOLV      2657            0.0000000000
      7942      2620  TIP3      H2             49.1796964810       36.9936967438       34.7806618360  SOLV      2657            0.0000000000
      7943      2621  TIP3      OH2            39.6033064810       37.1641467438       31.8173518360  SOLV      2658            0.0000000000
      7944      2621  TIP3      H1             38.8829464810       37.6042467438       31.3661218360  SOLV      2658            0.0000000000
      7945      2621  TIP3      H2             39.2377064810       36.9136167438       32.6657518360  SOLV      2658            0.0000000000
      7946      2622  TIP3      OH2            42.0705664810       36.7645367438       30.8470718360  SOLV      2659            0.0000000000
      7947      2622  TIP3      H1             41.2057864810       36.8363867438       31.2510818360  SOLV      2659            0.0000000000
      7948      2622  TIP3      H2             42.0154664810       37.3112667438       30.0633218360  SOLV      2659            0.0000000000
      7949      2623  TIP3      OH2            46.7811264810       36.6524267438       30.0226718360  SOLV      2660            0.0000000000
      7950      2623  TIP3      H1             46.3245264810       37.1813967438       29.3685118360  SOLV      2660            0.0000000000
      7951      2623  TIP3      H2             46.9439264810       37.2555667438       30.7479018360  SOLV      2660            0.0000000000
      7952      2624  TIP3      OH2            49.1087564810       35.5303867438       30.9677018360  SOLV      2661            0.0000000000
      7953      2624  TIP3      H1             48.2041264810       35.6954067438       30.7019118360  SOLV      2661            0.0000000000
      7954      2624  TIP3      H2             49.5376164810       36.3836067438       30.9020418360  SOLV      2661            0.0000000000
      7955      2625  TIP3      OH2            39.0181164810       35.7873967438       28.7275318360  SOLV      2662            0.0000000000
      7956      2625  TIP3      H1             38.9997164810       35.3619067438       29.5847618360  SOLV      2662            0.0000000000
      7957      2625  TIP3      H2             39.8229064810       35.4688967438       28.3187518360  SOLV      2662            0.0000000000
      7958      2626  TIP3      OH2            41.1594264810       34.4972667438       27.3825218360  SOLV      2663            0.0000000000
      7959      2626  TIP3      H1             40.9404964810       33.5810067438       27.5521218360  SOLV      2663            0.0000000000
      7960      2626  TIP3      H2             41.9836464810       34.6373067438       27.8486618360  SOLV      2663            0.0000000000
      7961      2627  TIP3      OH2            43.6966764810       34.9671967438       28.2313218360  SOLV      2664            0.0000000000
      7962      2627  TIP3      H1             43.9092464810       34.0790967438       27.9444118360  SOLV      2664            0.0000000000
      7963      2627  TIP3      H2             43.7611864810       34.9329667438       29.1857218360  SOLV      2664            0.0000000000
      7964      2628  TIP3      OH2            47.2050464810       20.6312567438       27.3756518360  SOLV      2665            0.0000000000
      7965      2628  TIP3      H1             46.5307264810       20.0018167438       27.6312318360  SOLV      2665            0.0000000000
      7966      2628  TIP3      H2             47.7689664810       20.1471467438       26.7724418360  SOLV      2665            0.0000000000
      7967      2629  TIP3      OH2            39.5317964810       19.2652867438       25.1976418360  SOLV      2666            0.0000000000
      7968      2629  TIP3      H1             38.7547764810       19.0307767438       24.6902318360  SOLV      2666            0.0000000000
      7969      2629  TIP3      H2             40.0621564810       18.4684967438       25.2064418360  SOLV      2666            0.0000000000
      7970      2630  TIP3      OH2            38.3681364810       19.0630967438       21.0012518360  SOLV      2667            0.0000000000
      7971      2630  TIP3      H1             38.8072064810       19.6741467438       20.4096018360  SOLV      2667            0.0000000000
      7972      2630  TIP3      H2             37.7343764810       19.6015067438       21.4752518360  SOLV      2667            0.0000000000
      7973      2631  TIP3      OH2            44.1110564810       19.1919967438       25.0109518360  SOLV      2668            0.0000000000
      7974      2631  TIP3      H1             44.9853964810       19.5804267438       24.9813818360  SOLV      2668            0.0000000000
      7975      2631  TIP3      H2             43.9751364810       18.9767767438       25.9336718360  SOLV      2668            0.0000000000
      7976      2632  TIP3      OH2            49.6678964810       19.2219767438       26.6601218360  SOLV      2669            0.0000000000
      7977      2632  TIP3      H1             49.7440564810       19.3171367438       25.7107218360  SOLV      2669            0.0000000000
      7978      2632  TIP3      H2             49.3928164810       18.3142667438       26.7890318360  SOLV      2669            0.0000000000
      7979      2633  TIP3      OH2            38.2690864810       35.0113167438       21.8987618360  SOLV      2670            0.0000000000
      7980      2633  TIP3      H1             37.5840764810       34.9732067438       21.2312718360  SOLV      2670            0.0000000000
      7981      2633  TIP3      H2             38.2728064810       35.9240767438       22.1869718360  SOLV      2670            0.0000000000
      7982      2634  TIP3      OH2            40.2290464810       20.9792467438       19.4436618360  SOLV      2671            0.0000000000
      7983      2634  TIP3      H1             40.7203864810       20.3494867438       18.9162118360  SOLV      2671            0.0000000000
      7984      2634  TIP3      H2             40.8526764810       21.2751867438       20.1067818360  SOLV      2671            0.0000000000
      7985      2635  TIP3      OH2            45.2550564810       21.2723967438       21.9007118360  SOLV      2672            0.0000000000
      7986      2635  TIP3      H1             45.4331864810       20.6257167438       22.5835718360  SOLV      2672            0.0000000000
      7987      2635  TIP3      H2             45.2016764810       22.1061667438       22.3678218360  SOLV      2672            0.0000000000
      7988      2636  TIP3      OH2            47.1334364810       36.2208067438       20.2963818360  SOLV      2673            0.0000000000
      7989      2636  TIP3      H1             47.9994564810       36.5875467438       20.1182018360  SOLV      2673            0.0000000000
      7990      2636  TIP3      H2             46.8867164810       35.7816067438       19.4824618360  SOLV      2673            0.0000000000
      7991      2637  TIP3      OH2            39.4895964810       19.7794767438       34.7152618360  SOLV      2674            0.0000000000
      7992      2637  TIP3      H1             39.1234164810       19.0137367438       35.1577318360  SOLV      2674            0.0000000000
      7993      2637  TIP3      H2             40.4024464810       19.8084967438       35.0017718360  SOLV      2674            0.0000000000
      7994      2638  TIP3      OH2            41.4626764810       19.1299167438       36.2509718360  SOLV      2675            0.0000000000
      7995      2638  TIP3      H1             42.3610364810       18.8559367438       36.0663118360  SOLV      2675            0.0000000000
      7996      2638  TIP3      H2             41.0759864810       18.3875167438       36.7152318360  SOLV      2675            0.0000000000
      7997      2639  TIP3      OH2            40.0872064810       35.9313967438       18.9239718360  SOLV      2676            0.0000000000
      7998      2639  TIP3      H1             39.8196664810       36.2176867438       19.7972818360  SOLV      2676            0.0000000000
      7999      2639  TIP3      H2             40.8584664810       35.3853167438       19.0762218360  SOLV      2676            0.0000000000
      8000      2640  TIP3      OH2            11.6100564810       46.9215167438       25.1563918360  SOLV      2677            0.0000000000
      8001      2640  TIP3      H1             11.6991664810       47.8653367438       25.0241018360  SOLV      2677            0.0000000000
      8002      2640  TIP3      H2             10.9718164810       46.6461567438       24.4983318360  SOLV      2677            0.0000000000
      8003      2641  TIP3      OH2            10.5431864810       46.1765867438       28.5752118360  SOLV      2678            0.0000000000
      8004      2641  TIP3      H1             10.5049364810       45.5302167438       29.2801718360  SOLV      2678            0.0000000000
      8005      2641  TIP3      H2             10.2208364810       45.7100267438       27.8040818360  SOLV      2678            0.0000000000
      8006      2642  TIP3      OH2             2.9116864810       45.7907967438       30.1682018360  SOLV      2679            0.0000000000
      8007      2642  TIP3      H1              2.9528964810       45.1651267438       30.8914418360  SOLV      2679            0.0000000000
      8008      2642  TIP3      H2              3.6144564810       46.4146567438       30.3502418360  SOLV      2679            0.0000000000
      8009      2643  TIP3      OH2            14.2492064810       49.1156267438       26.8767218360  SOLV      2680            0.0000000000
      8010      2643  TIP3      H1             13.8084764810       48.3952267438       27.3272818360  SOLV      2680            0.0000000000
      8011      2643  TIP3      H2             14.2361764810       49.8363467438       27.5064918360  SOLV      2680            0.0000000000
      8012      2644  TIP3      OH2             0.4450464810       43.9009467438       24.0959918360  SOLV      2681            0.0000000000
      8013      2644  TIP3      H1             -0.0026135190       44.7468167438       24.0776418360  SOLV      2681            0.0000000000
      8014      2644  TIP3      H2             -0.1158335190       43.3213667438       23.5805018360  SOLV      2681            0.0000000000
      8015      2645  TIP3      OH2             1.1556564810       46.0629067438       26.2217918360  SOLV      2682            0.0000000000
      8016      2645  TIP3      H1              1.3690064810       45.2930667438       26.7490918360  SOLV      2682            0.0000000000
      8017      2645  TIP3      H2              1.8934164810       46.1525767438       25.6185518360  SOLV      2682            0.0000000000
      8018      2646  TIP3      OH2             8.9326264810       48.6087267438       28.9813118360  SOLV      2683            0.0000000000
      8019      2646  TIP3      H1              9.2364164810       47.9228667438       28.3867218360  SOLV      2683            0.0000000000
      8020      2646  TIP3      H2              9.6540264810       48.7275967438       29.5991118360  SOLV      2683            0.0000000000
      8021      2647  TIP3      OH2            17.5956064810       40.2102567438       29.8419318360  SOLV      2684            0.0000000000
      8022      2647  TIP3      H1             17.6448264810       40.8203767438       30.5778418360  SOLV      2684            0.0000000000
      8023      2647  TIP3      H2             18.0211164810       40.6713467438       29.1190418360  SOLV      2684            0.0000000000
      8024      2648  TIP3      OH2            12.0733264810       43.0029667438       29.3087918360  SOLV      2685            0.0000000000
      8025      2648  TIP3      H1             12.2159164810       42.0566667438       29.3289518360  SOLV      2685            0.0000000000
      8026      2648  TIP3      H2             11.9672264810       43.2099467438       28.3802818360  SOLV      2685            0.0000000000
      8027      2649  TIP3      OH2             5.2281564810       41.1046067438       26.5812718360  SOLV      2686            0.0000000000
      8028      2649  TIP3      H1              5.2712664810       41.9644567438       26.1629018360  SOLV      2686            0.0000000000
      8029      2649  TIP3      H2              4.7705664810       40.5520767438       25.9475918360  SOLV      2686            0.0000000000
      8030      2650  TIP3      OH2            12.9504264810       41.2351667438       24.9821018360  SOLV      2687            0.0000000000
      8031      2650  TIP3      H1             13.5968564810       40.9064867438       25.6068618360  SOLV      2687            0.0000000000
      8032      2650  TIP3      H2             13.4603664810       41.7530667438       24.3592418360  SOLV      2687            0.0000000000
      8033      2651  TIP3      OH2             1.8483064810       43.5011867438       27.3434118360  SOLV      2688            0.0000000000
      8034      2651  TIP3      H1              2.5019664810       42.9513567438       27.7754218360  SOLV      2688            0.0000000000
      8035      2651  TIP3      H2              1.8722364810       43.2270867438       26.4266118360  SOLV      2688            0.0000000000
      8036      2652  TIP3      OH2             7.0047564810       45.0513167438       26.5585618360  SOLV      2689            0.0000000000
      8037      2652  TIP3      H1              7.6208564810       44.5248567438       27.0679618360  SOLV      2689            0.0000000000
      8038      2652  TIP3      H2              6.4186364810       44.4111867438       26.1549218360  SOLV      2689            0.0000000000
      8039      2653  TIP3      OH2            17.9870664810       41.6881767438       32.0779118360  SOLV      2690            0.0000000000
      8040      2653  TIP3      H1             17.2985264810       42.3462467438       31.9825718360  SOLV      2690            0.0000000000
      8041      2653  TIP3      H2             18.0025264810       41.4909667438       33.0144518360  SOLV      2690            0.0000000000
      8042      2654  TIP3      OH2             4.0383464810       40.0224467438       30.6553518360  SOLV      2691            0.0000000000
      8043      2654  TIP3      H1              3.8195164810       40.5525067438       29.8889518360  SOLV      2691            0.0000000000
      8044      2654  TIP3      H2              3.3704364810       40.2489967438       31.3024918360  SOLV      2691            0.0000000000
      8045      2655  TIP3      OH2            11.4073264810       49.5225567438       24.1992618360  SOLV      2692            0.0000000000
      8046      2655  TIP3      H1             11.1118364810       49.1997867438       23.3479518360  SOLV      2692            0.0000000000
      8047      2655  TIP3      H2             11.0831064810       50.4222267438       24.2405218360  SOLV      2692            0.0000000000
      8048      2656  TIP3      OH2             6.6074864810       47.6980167438       30.9427218360  SOLV      2693            0.0000000000
      8049      2656  TIP3      H1              5.8673964810       48.2961667438       31.0462418360  SOLV      2693            0.0000000000
      8050      2656  TIP3      H2              7.3214364810       48.2519767438       30.6270818360  SOLV      2693            0.0000000000
      8051      2657  TIP3      OH2            14.7142664810       40.5260967438       26.9626918360  SOLV      2694            0.0000000000
      8052      2657  TIP3      H1             14.4990664810       39.7604367438       27.4952918360  SOLV      2694            0.0000000000
      8053      2657  TIP3      H2             15.3700064810       40.9985567438       27.4755418360  SOLV      2694            0.0000000000
      8054      2658  TIP3      OH2             3.6320764810       41.9146267438       28.6075718360  SOLV      2695            0.0000000000
      8055      2658  TIP3      H1              4.2457064810       42.5473867438       28.9808118360  SOLV      2695            0.0000000000
      8056      2658  TIP3      H2              4.1441464810       41.4421267438       27.9512618360  SOLV      2695            0.0000000000
      8057      2659  TIP3      OH2             1.1360064810       49.3331067438       22.5118018360  SOLV      2696            0.0000000000
      8058      2659  TIP3      H1              0.8640964810       49.5622067438       21.6230918360  SOLV      2696            0.0000000000
      8059      2659  TIP3      H2              1.1815764810       50.1709867438       22.9723318360  SOLV      2696            0.0000000000
      8060      2660  TIP3      OH2            15.0616764810       39.2412267438       30.6420418360  SOLV      2697            0.0000000000
      8061      2660  TIP3      H1             14.3255964810       39.8519367438       30.6041718360  SOLV      2697            0.0000000000
      8062      2660  TIP3      H2             15.7450764810       39.6561267438       30.1156818360  SOLV      2697            0.0000000000
      8063      2661  TIP3      OH2             8.0648164810       37.3279567438       28.1078418360  SOLV      2698            0.0000000000
      8064      2661  TIP3      H1              7.9472364810       36.3795567438       28.0536718360  SOLV      2698            0.0000000000
      8065      2661  TIP3      H2              7.2098264810       37.6605667438       28.3809518360  SOLV      2698            0.0000000000
      8066      2662  TIP3      OH2            15.8587664810       49.2035667438       32.8358218360  SOLV      2699            0.0000000000
      8067      2662  TIP3      H1             15.9983964810       48.6118167438       32.0965218360  SOLV      2699            0.0000000000
      8068      2662  TIP3      H2             16.0260464810       50.0761567438       32.4797018360  SOLV      2699            0.0000000000
      8069      2663  TIP3      OH2            10.3313064810       46.1655167438       22.6084218360  SOLV      2700            0.0000000000
      8070      2663  TIP3      H1              9.6198564810       46.7004867438       22.2564718360  SOLV      2700            0.0000000000
      8071      2663  TIP3      H2             11.0222664810       46.2207267438       21.9483118360  SOLV      2700            0.0000000000
      8072      2664  TIP3      OH2            10.3852264810       44.6229467438       19.6469218360  SOLV      2701            0.0000000000
      8073      2664  TIP3      H1             11.0862164810       44.6456367438       20.2983218360  SOLV      2701            0.0000000000
      8074      2664  TIP3      H2             10.6875164810       43.9949167438       18.9908518360  SOLV      2701            0.0000000000
      8075      2665  TIP3      OH2            17.7006964810       45.5433667438       30.9018618360  SOLV      2702            0.0000000000
      8076      2665  TIP3      H1             17.0481064810       46.2379267438       30.9909518360  SOLV      2702            0.0000000000
      8077      2665  TIP3      H2             18.1657264810       45.7534567438       30.0920218360  SOLV      2702            0.0000000000
      8078      2666  TIP3      OH2            13.7370764810       46.3748467438       23.5600118360  SOLV      2703            0.0000000000
      8079      2666  TIP3      H1             13.0051764810       46.6032167438       24.1330718360  SOLV      2703            0.0000000000
      8080      2666  TIP3      H2             14.1842964810       45.6611167438       24.0147618360  SOLV      2703            0.0000000000
      8081      2667  TIP3      OH2            13.6344264810       44.5491067438       32.6277118360  SOLV      2704            0.0000000000
      8082      2667  TIP3      H1             13.7143364810       45.3125467438       33.1995618360  SOLV      2704            0.0000000000
      8083      2667  TIP3      H2             13.0331964810       44.8283467438       31.9372218360  SOLV      2704            0.0000000000
      8084      2668  TIP3      OH2             5.3824464810       47.0054667438       25.4425118360  SOLV      2705            0.0000000000
      8085      2668  TIP3      H1              5.0519664810       46.6348067438       24.6242118360  SOLV      2705            0.0000000000
      8086      2668  TIP3      H2              5.9708564810       46.3348667438       25.7893418360  SOLV      2705            0.0000000000
      8087      2669  TIP3      OH2             5.7489964810       45.7740267438       29.0760118360  SOLV      2706            0.0000000000
      8088      2669  TIP3      H1              6.3142464810       45.8954467438       28.3131318360  SOLV      2706            0.0000000000
      8089      2669  TIP3      H2              6.0678864810       46.4115267438       29.7148618360  SOLV      2706            0.0000000000
      8090      2670  TIP3      OH2            12.6080264810       45.5371367438       21.2451318360  SOLV      2707            0.0000000000
      8091      2670  TIP3      H1             13.1875764810       45.6871667438       21.9920218360  SOLV      2707            0.0000000000
      8092      2670  TIP3      H2             13.0220264810       46.0078767438       20.5217718360  SOLV      2707            0.0000000000
      8093      2671  TIP3      OH2             3.5490564810       46.3714067438       33.0217718360  SOLV      2708            0.0000000000
      8094      2671  TIP3      H1              3.6193764810       47.0220867438       33.7202718360  SOLV      2708            0.0000000000
      8095      2671  TIP3      H2              2.6582764810       46.4741567438       32.6868618360  SOLV      2708            0.0000000000
      8096      2672  TIP3      OH2            16.3068664810       37.2871767438       21.0581018360  SOLV      2709            0.0000000000
      8097      2672  TIP3      H1             15.4069364810       37.4260767438       21.3531618360  SOLV      2709            0.0000000000
      8098      2672  TIP3      H2             16.5587064810       38.1186367438       20.6562718360  SOLV      2709            0.0000000000
      8099      2673  TIP3      OH2             4.3727164810       46.0748967438       23.0317918360  SOLV      2710            0.0000000000
      8100      2673  TIP3      H1              4.0808464810       46.8430667438       22.5409218360  SOLV      2710            0.0000000000
      8101      2673  TIP3      H2              3.6982364810       45.4155167438       22.8689318360  SOLV      2710            0.0000000000
      8102      2674  TIP3      OH2             0.4657264810       48.4378167438       31.8467718360  SOLV      2711            0.0000000000
      8103      2674  TIP3      H1             -0.0354335190       48.4097567438       31.0317418360  SOLV      2711            0.0000000000
      8104      2674  TIP3      H2              0.4710964810       47.5321367438       32.1565018360  SOLV      2711            0.0000000000
      8105      2675  TIP3      OH2            15.5658264810       43.3774167438       34.8933818360  SOLV      2712            0.0000000000
      8106      2675  TIP3      H1             15.1585064810       43.8579767438       34.1727118360  SOLV      2712            0.0000000000
      8107      2675  TIP3      H2             15.6063964810       42.4720167438       34.5854618360  SOLV      2712            0.0000000000
      8108      2676  TIP3      OH2             2.7147764810       49.7613567438       32.8900518360  SOLV      2713            0.0000000000
      8109      2676  TIP3      H1              2.9309064810       49.3999167438       33.7496318360  SOLV      2713            0.0000000000
      8110      2676  TIP3      H2              1.8592464810       49.3867367438       32.6804018360  SOLV      2713            0.0000000000
      8111      2677  TIP3      OH2             5.3335764810       38.2314067438       28.8854718360  SOLV      2714            0.0000000000
      8112      2677  TIP3      H1              4.4719464810       38.1442267438       28.4777618360  SOLV      2714            0.0000000000
      8113      2677  TIP3      H2              5.3111464810       39.0874167438       29.3132318360  SOLV      2714            0.0000000000
      8114      2678  TIP3      OH2             9.9963564810       37.9534467438       32.2601718360  SOLV      2715            0.0000000000
      8115      2678  TIP3      H1             10.4166664810       37.5381567438       33.0132318360  SOLV      2715            0.0000000000
      8116      2678  TIP3      H2              9.0633164810       37.7747767438       32.3773718360  SOLV      2715            0.0000000000
      8117      2679  TIP3      OH2            13.3228464810       41.7089667438       33.1136218360  SOLV      2716            0.0000000000
      8118      2679  TIP3      H1             12.8087964810       41.5831867438       33.9112218360  SOLV      2716            0.0000000000
      8119      2679  TIP3      H2             13.1673164810       42.6212767438       32.8692418360  SOLV      2716            0.0000000000
      8120      2680  TIP3      OH2            14.0853364810       46.5699667438       18.8749218360  SOLV      2717            0.0000000000
      8121      2680  TIP3      H1             14.1274164810       46.3473567438       17.9449218360  SOLV      2717            0.0000000000
      8122      2680  TIP3      H2             14.9345464810       46.9686767438       19.0649118360  SOLV      2717            0.0000000000
      8123      2681  TIP3      OH2             9.6580864810       40.4457867438       19.5452518360  SOLV      2718            0.0000000000
      8124      2681  TIP3      H1              9.4045664810       40.4649467438       20.4680618360  SOLV      2718            0.0000000000
      8125      2681  TIP3      H2              9.4012964810       39.5743267438       19.2438718360  SOLV      2718            0.0000000000
      8126      2682  TIP3      OH2             5.4245864810       43.1968567438       29.9804918360  SOLV      2719            0.0000000000
      8127      2682  TIP3      H1              4.7827964810       43.1565867438       30.6895018360  SOLV      2719            0.0000000000
      8128      2682  TIP3      H2              5.4617864810       44.1233267438       29.7427918360  SOLV      2719            0.0000000000
      8129      2683  TIP3      OH2             5.4214964810       43.4178667438       24.8924918360  SOLV      2720            0.0000000000
      8130      2683  TIP3      H1              4.5287864810       43.0774767438       24.8338718360  SOLV      2720            0.0000000000
      8131      2683  TIP3      H2              5.8721564810       43.0409567438       24.1368118360  SOLV      2720            0.0000000000
      8132      2684  TIP3      OH2            10.9570464810       43.8338967438       23.7095718360  SOLV      2721            0.0000000000
      8133      2684  TIP3      H1             10.5480764810       44.6487567438       23.4180518360  SOLV      2721            0.0000000000
      8134      2684  TIP3      H2             11.6776664810       43.6939067438       23.0952818360  SOLV      2721            0.0000000000
      8135      2685  TIP3      OH2            10.0592064810       44.0095367438       35.1976418360  SOLV      2722            0.0000000000
      8136      2685  TIP3      H1              9.4965864810       43.3046967438       35.5184218360  SOLV      2722            0.0000000000
      8137      2685  TIP3      H2             10.8855464810       43.8887267438       35.6654018360  SOLV      2722            0.0000000000
      8138      2686  TIP3      OH2            11.9618164810       43.2799367438       26.5235418360  SOLV      2723            0.0000000000
      8139      2686  TIP3      H1             11.7662664810       43.8856167438       25.8086018360  SOLV      2723            0.0000000000
      8140      2686  TIP3      H2             12.1430764810       42.4464567438       26.0891718360  SOLV      2723            0.0000000000
      8141      2687  TIP3      OH2             3.1746364810       43.5172067438       31.8476918360  SOLV      2724            0.0000000000
      8142      2687  TIP3      H1              3.1365764810       43.9173667438       32.7164018360  SOLV      2724            0.0000000000
      8143      2687  TIP3      H2              2.6837464810       42.7004467438       31.9379818360  SOLV      2724            0.0000000000
      8144      2688  TIP3      OH2             6.5403764810       40.8914367438       18.6462918360  SOLV      2725            0.0000000000
      8145      2688  TIP3      H1              6.1094464810       40.4464467438       19.3760318360  SOLV      2725            0.0000000000
      8146      2688  TIP3      H2              5.8222464810       41.2630667438       18.1340418360  SOLV      2725            0.0000000000
      8147      2689  TIP3      OH2            -0.2172835190       40.6333867438       25.6981618360  SOLV      2726            0.0000000000
      8148      2689  TIP3      H1              0.4134864810       40.6045967438       26.4175518360  SOLV      2726            0.0000000000
      8149      2689  TIP3      H2              0.2321464810       40.2082567438       24.9677518360  SOLV      2726            0.0000000000
      8150      2690  TIP3      OH2             1.0569264810       41.3795867438       21.1222018360  SOLV      2727            0.0000000000
      8151      2690  TIP3      H1              1.5310964810       41.9705767438       20.5372918360  SOLV      2727            0.0000000000
      8152      2690  TIP3      H2              0.3395664810       41.9098767438       21.4692118360  SOLV      2727            0.0000000000
      8153      2691  TIP3      OH2            11.2257364810       44.9180667438       31.1947818360  SOLV      2728            0.0000000000
      8154      2691  TIP3      H1             11.5492164810       44.2870367438       30.5518318360  SOLV      2728            0.0000000000
      8155      2691  TIP3      H2             10.7856664810       44.3832867438       31.8555218360  SOLV      2728            0.0000000000
      8156      2692  TIP3      OH2             8.0030264810       40.8456167438       25.9789018360  SOLV      2729            0.0000000000
      8157      2692  TIP3      H1              7.0921364810       40.9022967438       26.2675018360  SOLV      2729            0.0000000000
      8158      2692  TIP3      H2              8.5083164810       40.7851667438       26.7896218360  SOLV      2729            0.0000000000
      8159      2693  TIP3      OH2             2.8313664810       42.4742467438       24.8056618360  SOLV      2730            0.0000000000
      8160      2693  TIP3      H1              1.9421664810       42.5737967438       24.4656218360  SOLV      2730            0.0000000000
      8161      2693  TIP3      H2              3.1278564810       41.6325467438       24.4594518360  SOLV      2730            0.0000000000
      8162      2694  TIP3      OH2             6.4845464810       42.4745067438       22.4621218360  SOLV      2731            0.0000000000
      8163      2694  TIP3      H1              7.4160964810       42.6035067438       22.6404318360  SOLV      2731            0.0000000000
      8164      2694  TIP3      H2              6.2695764810       43.1439367438       21.8125918360  SOLV      2731            0.0000000000
      8165      2695  TIP3      OH2            12.4082164810       40.0802467438       29.2430818360  SOLV      2732            0.0000000000
      8166      2695  TIP3      H1             11.7313764810       40.2115567438       29.9070518360  SOLV      2732            0.0000000000
      8167      2695  TIP3      H2             11.9227064810       39.9251967438       28.4328518360  SOLV      2732            0.0000000000
      8168      2696  TIP3      OH2             5.1585664810       43.6687267438       20.0287318360  SOLV      2733            0.0000000000
      8169      2696  TIP3      H1              4.6160764810       43.2891067438       19.3374918360  SOLV      2733            0.0000000000
      8170      2696  TIP3      H2              5.9920564810       43.8631967438       19.6001418360  SOLV      2733            0.0000000000
      8171      2697  TIP3      OH2             3.2937064810       48.2259167438       35.1278918360  SOLV      2734            0.0000000000
      8172      2697  TIP3      H1              4.0259464810       48.4805067438       35.6893418360  SOLV      2734            0.0000000000
      8173      2697  TIP3      H2              2.5135764810       48.4304567438       35.6434318360  SOLV      2734            0.0000000000
      8174      2698  TIP3      OH2             9.3229964810       43.6329167438       27.8658618360  SOLV      2735            0.0000000000
      8175      2698  TIP3      H1              9.8873364810       43.0865767438       27.3188218360  SOLV      2735            0.0000000000
      8176      2698  TIP3      H2              9.1753364810       43.1111067438       28.6546218360  SOLV      2735            0.0000000000
      8177      2699  TIP3      OH2             4.3249664810       39.7695267438       24.2843418360  SOLV      2736            0.0000000000
      8178      2699  TIP3      H1              4.0079164810       38.8670567438       24.2488818360  SOLV      2736            0.0000000000
      8179      2699  TIP3      H2              5.1063764810       39.7712667438       23.7315018360  SOLV      2736            0.0000000000
      8180      2700  TIP3      OH2             7.9495864810       42.0215267438       30.2799018360  SOLV      2737            0.0000000000
      8181      2700  TIP3      H1              7.1141164810       42.4754767438       30.3901418360  SOLV      2737            0.0000000000
      8182      2700  TIP3      H2              8.4736464810       42.2973767438       31.0318918360  SOLV      2737            0.0000000000
      8183      2701  TIP3      OH2             8.4938464810       48.2342967438       21.9645418360  SOLV      2738            0.0000000000
      8184      2701  TIP3      H1              7.7489464810       47.7268267438       21.6423318360  SOLV      2738            0.0000000000
      8185      2701  TIP3      H2              8.3595664810       48.2830967438       22.9110218360  SOLV      2738            0.0000000000
      8186      2702  TIP3      OH2            15.6437364810       47.3671167438       30.7513018360  SOLV      2739            0.0000000000
      8187      2702  TIP3      H1             16.2856164810       47.8237467438       30.2075218360  SOLV      2739            0.0000000000
      8188      2702  TIP3      H2             14.8134264810       47.4803567438       30.2887118360  SOLV      2739            0.0000000000
      8189      2703  TIP3      OH2            12.3915264810       41.0482867438       20.1638018360  SOLV      2740            0.0000000000
      8190      2703  TIP3      H1             11.4529464810       41.1598467438       20.0126818360  SOLV      2740            0.0000000000
      8191      2703  TIP3      H2             12.6887364810       41.9049767438       20.4703718360  SOLV      2740            0.0000000000
      8192      2704  TIP3      OH2            10.0130564810       48.4186267438       33.2014518360  SOLV      2741            0.0000000000
      8193      2704  TIP3      H1              9.6676664810       48.0368667438       34.0084118360  SOLV      2741            0.0000000000
      8194      2704  TIP3      H2              9.8130664810       49.3519867438       33.2727418360  SOLV      2741            0.0000000000
      8195      2705  TIP3      OH2            13.1098764810       42.9155567438       21.8245418360  SOLV      2742            0.0000000000
      8196      2705  TIP3      H1             14.0017764810       42.7780567438       22.1436618360  SOLV      2742            0.0000000000
      8197      2705  TIP3      H2             13.1662364810       43.7061667438       21.2878918360  SOLV      2742            0.0000000000
      8198      2706  TIP3      OH2             3.6186764810       47.5292967438       27.7343318360  SOLV      2743            0.0000000000
      8199      2706  TIP3      H1              4.3633964810       47.5268667438       27.1329818360  SOLV      2743            0.0000000000
      8200      2706  TIP3      H2              3.6963364810       46.7056767438       28.2158418360  SOLV      2743            0.0000000000
      8201      2707  TIP3      OH2            10.6192564810       49.6927267438       20.9900018360  SOLV      2744            0.0000000000
      8202      2707  TIP3      H1             10.3240964810       50.5195167438       21.3714818360  SOLV      2744            0.0000000000
      8203      2707  TIP3      H2              9.9162564810       49.0734167438       21.1861418360  SOLV      2744            0.0000000000
      8204      2708  TIP3      OH2             0.6266464810       45.9899867438       33.0491818360  SOLV      2745            0.0000000000
      8205      2708  TIP3      H1              0.8495064810       45.5719467438       33.8809318360  SOLV      2745            0.0000000000
      8206      2708  TIP3      H2              0.0246564810       45.3774867438       32.6264618360  SOLV      2745            0.0000000000
      8207      2709  TIP3      OH2             7.6431364810       45.5069767438       35.2621518360  SOLV      2746            0.0000000000
      8208      2709  TIP3      H1              7.3472164810       45.3412767438       34.3670618360  SOLV      2746            0.0000000000
      8209      2709  TIP3      H2              8.5746564810       45.2870067438       35.2515418360  SOLV      2746            0.0000000000
      8210      2710  TIP3      OH2            17.9947464810       43.1249667438       21.5192118360  SOLV      2747            0.0000000000
      8211      2710  TIP3      H1             17.4403764810       42.7287667438       20.8469618360  SOLV      2747            0.0000000000
      8212      2710  TIP3      H2             18.0951064810       44.0354867438       21.2415418360  SOLV      2747            0.0000000000
      8213      2711  TIP3      OH2            17.9579464810       48.9251367438       34.3563618360  SOLV      2748            0.0000000000
      8214      2711  TIP3      H1             17.1067964810       49.1635167438       33.9890018360  SOLV      2748            0.0000000000
      8215      2711  TIP3      H2             18.5482864810       48.9084567438       33.6030718360  SOLV      2748            0.0000000000
      8216      2712  TIP3      OH2            13.4503064810       46.7189567438       29.0056118360  SOLV      2749            0.0000000000
      8217      2712  TIP3      H1             12.5219964810       46.4871467438       28.9785418360  SOLV      2749            0.0000000000
      8218      2712  TIP3      H2             13.9014164810       45.9419367438       28.6754918360  SOLV      2749            0.0000000000
      8219      2713  TIP3      OH2             1.7483864810       45.9095267438       19.7257218360  SOLV      2750            0.0000000000
      8220      2713  TIP3      H1              2.3643764810       46.5362467438       20.1052018360  SOLV      2750            0.0000000000
      8221      2713  TIP3      H2              0.8866464810       46.2255067438       19.9973718360  SOLV      2750            0.0000000000
      8222      2714  TIP3      OH2             7.4208464810       48.7101067438       24.7149118360  SOLV      2751            0.0000000000
      8223      2714  TIP3      H1              7.1798464810       49.6355467438       24.7564418360  SOLV      2751            0.0000000000
      8224      2714  TIP3      H2              6.6802064810       48.2512367438       25.1113018360  SOLV      2751            0.0000000000
      8225      2715  TIP3      OH2            11.4795864810       48.9585367438       30.7305818360  SOLV      2752            0.0000000000
      8226      2715  TIP3      H1             11.0537164810       48.7307067438       31.5569818360  SOLV      2752            0.0000000000
      8227      2715  TIP3      H2             12.0601664810       48.2197167438       30.5481118360  SOLV      2752            0.0000000000
      8228      2716  TIP3      OH2            13.6824764810       49.8875867438       19.8044818360  SOLV      2753            0.0000000000
      8229      2716  TIP3      H1             14.0357864810       49.5075667438       20.6088318360  SOLV      2753            0.0000000000
      8230      2716  TIP3      H2             12.7338264810       49.7940667438       19.8914118360  SOLV      2753            0.0000000000
      8231      2717  TIP3      OH2             2.2605964810       40.7432567438       32.6073218360  SOLV      2754            0.0000000000
      8232      2717  TIP3      H1              1.3678264810       41.0817967438       32.5397218360  SOLV      2754            0.0000000000
      8233      2717  TIP3      H2              2.1618764810       39.8878667438       33.0254018360  SOLV      2754            0.0000000000
      8234      2718  TIP3      OH2            14.5484064810       48.5597867438       22.0312718360  SOLV      2755            0.0000000000
      8235      2718  TIP3      H1             14.2711664810       47.8317167438       22.5873818360  SOLV      2755            0.0000000000
      8236      2718  TIP3      H2             15.4757064810       48.6789867438       22.2365318360  SOLV      2755            0.0000000000
      8237      2719  TIP3      OH2             3.1634264810       47.8219067438       21.2182818360  SOLV      2756            0.0000000000
      8238      2719  TIP3      H1              2.4773564810       48.1741567438       21.7852518360  SOLV      2756            0.0000000000
      8239      2719  TIP3      H2              3.6862164810       48.5848667438       20.9717118360  SOLV      2756            0.0000000000
      8240      2720  TIP3      OH2            10.9949364810       40.4842867438       31.4971818360  SOLV      2757            0.0000000000
      8241      2720  TIP3      H1             11.6937264810       40.5581567438       32.1471518360  SOLV      2757            0.0000000000
      8242      2720  TIP3      H2             10.6140764810       39.6197867438       31.6514718360  SOLV      2757            0.0000000000
      8243      2721  TIP3      OH2            11.7794264810       40.1364567438       22.5944118360  SOLV      2758            0.0000000000
      8244      2721  TIP3      H1             11.9992564810       40.6079967438       21.7909518360  SOLV      2758            0.0000000000
      8245      2721  TIP3      H2             12.3378264810       40.5307167438       23.2644718360  SOLV      2758            0.0000000000
      8246      2722  TIP3      OH2             8.9794164810       41.8643367438       23.4292518360  SOLV      2759            0.0000000000
      8247      2722  TIP3      H1              9.7916764810       42.3686567438       23.4754218360  SOLV      2759            0.0000000000
      8248      2722  TIP3      H2              8.7347164810       41.7193067438       24.3432118360  SOLV      2759            0.0000000000
      8249      2723  TIP3      OH2             9.5150564810       42.8506067438       32.6139118360  SOLV      2760            0.0000000000
      8250      2723  TIP3      H1              9.6340864810       43.4241467438       33.3709518360  SOLV      2760            0.0000000000
      8251      2723  TIP3      H2             10.1705164810       42.1625467438       32.7286918360  SOLV      2760            0.0000000000
      8252      2724  TIP3      OH2             9.8630864810       38.9456367438       24.3673618360  SOLV      2761            0.0000000000
      8253      2724  TIP3      H1              9.5164364810       39.5626967438       25.0117918360  SOLV      2761            0.0000000000
      8254      2724  TIP3      H2             10.5217764810       39.4462067438       23.8859118360  SOLV      2761            0.0000000000
      8255      2725  TIP3      OH2             5.5207864810       40.0085767438       21.0546118360  SOLV      2762            0.0000000000
      8256      2725  TIP3      H1              5.4372664810       40.8968867438       21.4012518360  SOLV      2762            0.0000000000
      8257      2725  TIP3      H2              6.4108164810       39.7432467438       21.2862918360  SOLV      2762            0.0000000000
      8258      2726  TIP3      OH2            15.7196364810       40.7576367438       33.4488818360  SOLV      2763            0.0000000000
      8259      2726  TIP3      H1             14.8032164810       41.0198067438       33.3612518360  SOLV      2763            0.0000000000
      8260      2726  TIP3      H2             16.0551364810       40.7545367438       32.5524118360  SOLV      2763            0.0000000000
      8261      2727  TIP3      OH2            14.3217364810       44.5077367438       27.5446118360  SOLV      2764            0.0000000000
      8262      2727  TIP3      H1             13.5241764810       44.0927567438       27.2161118360  SOLV      2764            0.0000000000
      8263      2727  TIP3      H2             14.7668464810       43.8171067438       28.0356618360  SOLV      2764            0.0000000000
      8264      2728  TIP3      OH2             2.0952364810       43.1000967438       19.2310018360  SOLV      2765            0.0000000000
      8265      2728  TIP3      H1              2.0504964810       44.0394067438       19.4097018360  SOLV      2765            0.0000000000
      8266      2728  TIP3      H2              1.2075564810       42.8645867438       18.9612118360  SOLV      2765            0.0000000000
      8267      2729  TIP3      OH2             2.9034364810       37.8817567438       27.9041018360  SOLV      2766            0.0000000000
      8268      2729  TIP3      H1              2.6744164810       37.9410067438       26.9766018360  SOLV      2766            0.0000000000
      8269      2729  TIP3      H2              2.4607764810       37.0903067438       28.2105118360  SOLV      2766            0.0000000000
      8270      2730  TIP3      OH2             1.0290864810       48.2452467438       36.3489118360  SOLV      2767            0.0000000000
      8271      2730  TIP3      H1              1.1731364810       47.3433167438       36.0625818360  SOLV      2767            0.0000000000
      8272      2730  TIP3      H2              0.2568264810       48.5314567438       35.8611418360  SOLV      2767            0.0000000000
      8273      2731  TIP3      OH2             5.3704564810       48.5888167438       18.4813718360  SOLV      2768            0.0000000000
      8274      2731  TIP3      H1              5.4348664810       47.7947767438       19.0120118360  SOLV      2768            0.0000000000
      8275      2731  TIP3      H2              6.0233764810       48.4700967438       17.7915718360  SOLV      2768            0.0000000000
      8276      2732  TIP3      OH2             7.6846964810       48.2150567438       35.7815518360  SOLV      2769            0.0000000000
      8277      2732  TIP3      H1              7.3560764810       48.4858667438       34.9242918360  SOLV      2769            0.0000000000
      8278      2732  TIP3      H2              7.8365164810       47.2740367438       35.6940518360  SOLV      2769            0.0000000000
      8279      2733  TIP3      OH2            10.7227964810       49.6359867438       18.2171718360  SOLV      2770            0.0000000000
      8280      2733  TIP3      H1             10.4542064810       49.8161967438       19.1180618360  SOLV      2770            0.0000000000
      8281      2733  TIP3      H2             10.5163564810       48.7106067438       18.0857518360  SOLV      2770            0.0000000000
      8282      2734  TIP3      OH2            13.4192164810       48.1307867438       33.1647818360  SOLV      2771            0.0000000000
      8283      2734  TIP3      H1             14.1646964810       48.7191567438       33.0451818360  SOLV      2771            0.0000000000
      8284      2734  TIP3      H2             12.6618964810       48.7127567438       33.2280918360  SOLV      2771            0.0000000000
      8285      2735  TIP3      OH2             1.8617364810       45.4455767438       35.7688418360  SOLV      2772            0.0000000000
      8286      2735  TIP3      H1              2.2698564810       44.5882367438       35.6479018360  SOLV      2772            0.0000000000
      8287      2735  TIP3      H2              1.6014964810       45.4597067438       36.6898718360  SOLV      2772            0.0000000000
      8288      2736  TIP3      OH2             6.5198364810       46.5614367438       20.7871718360  SOLV      2773            0.0000000000
      8289      2736  TIP3      H1              6.0600364810       46.0772667438       21.4730218360  SOLV      2773            0.0000000000
      8290      2736  TIP3      H2              6.7747064810       45.8929767438       20.1512218360  SOLV      2773            0.0000000000
      8291      2737  TIP3      OH2             5.8087664810       44.4541467438       33.1431318360  SOLV      2774            0.0000000000
      8292      2737  TIP3      H1              5.1903764810       45.1288067438       33.4236018360  SOLV      2774            0.0000000000
      8293      2737  TIP3      H2              6.1528864810       44.7755367438       32.3097518360  SOLV      2774            0.0000000000
      8294      2738  TIP3      OH2             7.5908764810       44.8046167438       19.0494918360  SOLV      2775            0.0000000000
      8295      2738  TIP3      H1              7.4103764810       44.6497367438       18.1223218360  SOLV      2775            0.0000000000
      8296      2738  TIP3      H2              8.5409264810       44.9124867438       19.0942818360  SOLV      2775            0.0000000000
      8297      2739  TIP3      OH2            10.8285864810       46.9256767438       36.4206118360  SOLV      2776            0.0000000000
      8298      2739  TIP3      H1             11.7817064810       47.0095867438       36.3932118360  SOLV      2776            0.0000000000
      8299      2739  TIP3      H2             10.6680464810       46.2138567438       37.0401018360  SOLV      2776            0.0000000000
      8300      2740  TIP3      OH2            16.9807064810       47.1590367438       18.4953018360  SOLV      2777            0.0000000000
      8301      2740  TIP3      H1             16.7071864810       46.7345867438       17.6821318360  SOLV      2777            0.0000000000
      8302      2740  TIP3      H2             17.0201164810       48.0904867438       18.2783418360  SOLV      2777            0.0000000000
      8303      2741  TIP3      OH2             6.1481364810       41.8092267438       34.2254418360  SOLV      2778            0.0000000000
      8304      2741  TIP3      H1              6.2982264810       41.0803567438       33.6234118360  SOLV      2778            0.0000000000
      8305      2741  TIP3      H2              6.1503764810       42.5863967438       33.6666618360  SOLV      2778            0.0000000000
      8306      2742  TIP3      OH2             6.5607064810       40.1788067438       31.7181818360  SOLV      2779            0.0000000000
      8307      2742  TIP3      H1              7.0964564810       40.6304767438       31.0661118360  SOLV      2779            0.0000000000
      8308      2742  TIP3      H2              5.7086664810       40.0707867438       31.2955918360  SOLV      2779            0.0000000000
      8309      2743  TIP3      OH2             8.1425464810       45.6184267438       31.9577018360  SOLV      2780            0.0000000000
      8310      2743  TIP3      H1              8.8930264810       45.4621767438       31.3844818360  SOLV      2780            0.0000000000
      8311      2743  TIP3      H2              7.8033764810       46.4700867438       31.6822518360  SOLV      2780            0.0000000000
      8312      2744  TIP3      OH2            12.5581664810       43.4336067438       36.9862318360  SOLV      2781            0.0000000000
      8313      2744  TIP3      H1             12.7502964810       42.5025467438       36.8746818360  SOLV      2781            0.0000000000
      8314      2744  TIP3      H2             13.4157964810       43.8585567438       36.9757718360  SOLV      2781            0.0000000000
      8315      2745  TIP3      OH2            13.8748864810       46.2221267438       35.0635018360  SOLV      2782            0.0000000000
      8316      2745  TIP3      H1             13.5933864810       46.9315867438       34.4858818360  SOLV      2782            0.0000000000
      8317      2745  TIP3      H2             14.8173164810       46.1494267438       34.9126218360  SOLV      2782            0.0000000000
      8318      2746  TIP3      OH2             4.6267664810       43.0075767438       36.1370018360  SOLV      2783            0.0000000000
      8319      2746  TIP3      H1              3.8596664810       42.4750567438       35.9267618360  SOLV      2783            0.0000000000
      8320      2746  TIP3      H2              5.3056664810       42.6976167438       35.5376318360  SOLV      2783            0.0000000000
      8321      2747  TIP3      OH2             7.3662564810       37.6353767438       32.1495418360  SOLV      2784            0.0000000000
      8322      2747  TIP3      H1              7.2682164810       38.5816967438       32.0441618360  SOLV      2784            0.0000000000
      8323      2747  TIP3      H2              6.6238764810       37.2627567438       31.6738918360  SOLV      2784            0.0000000000
      8324      2748  TIP3      OH2             8.6303064810       41.9569167438       35.7133818360  SOLV      2785            0.0000000000
      8325      2748  TIP3      H1              8.3948464810       41.7375867438       36.6148718360  SOLV      2785            0.0000000000
      8326      2748  TIP3      H2              7.8469964810       41.7500367438       35.2036318360  SOLV      2785            0.0000000000
      8327      2749  TIP3      OH2            11.3459664810       41.0842667438       34.7887318360  SOLV      2786            0.0000000000
      8328      2749  TIP3      H1             10.3985064810       41.1162367438       34.9210618360  SOLV      2786            0.0000000000
      8329      2749  TIP3      H2             11.6586364810       40.4589767438       35.4425518360  SOLV      2786            0.0000000000
      8330      2750  TIP3      OH2            12.9801164810       39.7183767438       36.7939218360  SOLV      2787            0.0000000000
      8331      2750  TIP3      H1             12.8832964810       38.7661067438       36.7881118360  SOLV      2787            0.0000000000
      8332      2750  TIP3      H2             12.6584264810       39.9870567438       37.6544718360  SOLV      2787            0.0000000000
      8333      2751  TIP3      OH2             2.8070464810       40.9279567438       35.8414718360  SOLV      2788            0.0000000000
      8334      2751  TIP3      H1              3.0187864810       40.2215667438       35.2312218360  SOLV      2788            0.0000000000
      8335      2751  TIP3      H2              2.6957964810       40.4905567438       36.6855918360  SOLV      2788            0.0000000000
      8336      2752  TIP3      OH2             7.5880664810       36.9291167438       34.8208218360  SOLV      2789            0.0000000000
      8337      2752  TIP3      H1              8.2999064810       36.2893367438       34.8067318360  SOLV      2789            0.0000000000
      8338      2752  TIP3      H2              7.4871064810       37.1959467438       33.9071318360  SOLV      2789            0.0000000000
      8339      2753  TIP3      OH2             7.9418164810       38.6119567438       36.8744518360  SOLV      2790            0.0000000000
      8340      2753  TIP3      H1              7.8100364810       38.1363367438       36.0543018360  SOLV      2790            0.0000000000
      8341      2753  TIP3      H2              7.3425564810       39.3563167438       36.8191618360  SOLV      2790            0.0000000000
      8342      2754  TIP3      OH2            17.4389864810       48.0278467438       22.4703418360  SOLV      2791            0.0000000000
      8343      2754  TIP3      H1             18.2891264810       48.4489367438       22.5975018360  SOLV      2791            0.0000000000
      8344      2754  TIP3      H2             17.4444964810       47.2878567438       23.0774818360  SOLV      2791            0.0000000000
      8345      2755  TIP3      OH2            17.8335464810       46.0815867438       24.2939118360  SOLV      2792            0.0000000000
      8346      2755  TIP3      H1             17.1070064810       45.6018467438       24.6916718360  SOLV      2792            0.0000000000
      8347      2755  TIP3      H2             18.4148764810       46.2870567438       25.0260718360  SOLV      2792            0.0000000000
      8348      2756  TIP3      OH2            17.5926664810       48.8663367438       29.2416718360  SOLV      2793            0.0000000000
      8349      2756  TIP3      H1             18.4260864810       48.4883367438       28.9610318360  SOLV      2793            0.0000000000
      8350      2756  TIP3      H2             17.7046964810       49.8094567438       29.1225818360  SOLV      2793            0.0000000000
      8351      2757  TIP3      OH2            18.1018564810       45.9824367438       20.6850418360  SOLV      2794            0.0000000000
      8352      2757  TIP3      H1             17.5799664810       46.3388467438       19.9661318360  SOLV      2794            0.0000000000
      8353      2757  TIP3      H2             18.0687764810       46.6572167438       21.3631318360  SOLV      2794            0.0000000000
      8354      2758  TIP3      OH2            16.4507564810       43.2219967438       19.2357518360  SOLV      2795            0.0000000000
      8355      2758  TIP3      H1             16.5471964810       43.8886967438       18.5557218360  SOLV      2795            0.0000000000
      8356      2758  TIP3      H2             16.3107164810       42.4066267438       18.7543018360  SOLV      2795            0.0000000000
      8357      2759  TIP3      OH2            15.6202264810       44.6022367438       24.8567818360  SOLV      2796            0.0000000000
      8358      2759  TIP3      H1             15.4701064810       43.6570967438       24.8365618360  SOLV      2796            0.0000000000
      8359      2759  TIP3      H2             15.2666764810       44.8833767438       25.7006918360  SOLV      2796            0.0000000000
      8360      2760  TIP3      OH2             0.6554664810       46.6804567438       28.8671618360  SOLV      2797            0.0000000000
      8361      2760  TIP3      H1              0.8397564810       46.5986267438       27.9314518360  SOLV      2797            0.0000000000
      8362      2760  TIP3      H2              1.5047564810       46.5561567438       29.2908018360  SOLV      2797            0.0000000000
      8363      2761  TIP3      OH2            16.4765164810       46.5725667438       34.4956118360  SOLV      2798            0.0000000000
      8364      2761  TIP3      H1             17.0592464810       45.8377967438       34.6873318360  SOLV      2798            0.0000000000
      8365      2761  TIP3      H2             17.0404464810       47.3445967438       34.5421918360  SOLV      2798            0.0000000000
      8366      2762  TIP3      OH2            17.9732264810       44.4751467438       35.1801518360  SOLV      2799            0.0000000000
      8367      2762  TIP3      H1             17.1098964810       44.0963567438       35.0146218360  SOLV      2799            0.0000000000
      8368      2762  TIP3      H2             18.5775964810       43.7366267438       35.1057318360  SOLV      2799            0.0000000000
      8369      2763  TIP3      OH2            15.6981364810       40.6299767438       18.3533018360  SOLV      2800            0.0000000000
      8370      2763  TIP3      H1             16.3087164810       40.2586567438       18.9901218360  SOLV      2800            0.0000000000
      8371      2763  TIP3      H2             14.8612864810       40.2086667438       18.5493018360  SOLV      2800            0.0000000000
      8372      2764  TIP3      OH2            15.3307064810       42.1848167438       23.3192918360  SOLV      2801            0.0000000000
      8373      2764  TIP3      H1             15.6104164810       41.2778567438       23.4434618360  SOLV      2801            0.0000000000
      8374      2764  TIP3      H2             16.0898764810       42.6189667438       22.9302118360  SOLV      2801            0.0000000000
      8375      2765  TIP3      OH2            15.9425364810       42.7665567438       28.7551818360  SOLV      2802            0.0000000000
      8376      2765  TIP3      H1             16.8753364810       42.9785467438       28.7207818360  SOLV      2802            0.0000000000
      8377      2765  TIP3      H2             15.7072864810       42.8677667438       29.6774818360  SOLV      2802            0.0000000000
      8378      2766  TIP3      OH2            15.9717264810       43.5030867438       31.5311218360  SOLV      2803            0.0000000000
      8379      2766  TIP3      H1             15.1288564810       43.7711267438       31.8971018360  SOLV      2803            0.0000000000
      8380      2766  TIP3      H2             16.4141564810       44.3252767438       31.3202318360  SOLV      2803            0.0000000000
      8381      2767  TIP3      OH2             0.2529464810       41.9509567438       35.0080418360  SOLV      2804            0.0000000000
      8382      2767  TIP3      H1              1.1724364810       41.8287867438       35.2443518360  SOLV      2804            0.0000000000
      8383      2767  TIP3      H2             -0.1966035190       41.2009267438       35.3973918360  SOLV      2804            0.0000000000
      8384      2768  TIP3      OH2            18.2548864810       37.4831067438       36.8846218360  SOLV      2805            0.0000000000
      8385      2768  TIP3      H1             18.6045864810       36.8294567438       36.2790918360  SOLV      2805            0.0000000000
      8386      2768  TIP3      H2             18.4018364810       38.3205167438       36.4448818360  SOLV      2805            0.0000000000
      8387      2769  TIP3      OH2            15.9441864810       39.4477467438       23.3674918360  SOLV      2806            0.0000000000
      8388      2769  TIP3      H1             16.1266864810       38.9988967438       24.1929918360  SOLV      2806            0.0000000000
      8389      2769  TIP3      H2             15.3444764810       38.8631867438       22.9039518360  SOLV      2806            0.0000000000
      8390      2770  TIP3      OH2             1.4741964810       40.2631167438       27.8993318360  SOLV      2807            0.0000000000
      8391      2770  TIP3      H1              1.9193564810       39.4713667438       28.2013018360  SOLV      2807            0.0000000000
      8392      2770  TIP3      H2              1.9404964810       40.9796367438       28.3298918360  SOLV      2807            0.0000000000
      8393      2771  TIP3      OH2            -0.2217735190       43.2624167438       28.9683518360  SOLV      2808            0.0000000000
      8394      2771  TIP3      H1              0.2702064810       43.0414667438       28.1775518360  SOLV      2808            0.0000000000
      8395      2771  TIP3      H2              0.1403164810       44.1027567438       29.2493018360  SOLV      2808            0.0000000000
      8396      2772  TIP3      OH2            17.7746064810       39.5925667438       35.2337518360  SOLV      2809            0.0000000000
      8397      2772  TIP3      H1             16.8571764810       39.8632767438       35.1981018360  SOLV      2809            0.0000000000
      8398      2772  TIP3      H2             17.8975464810       39.0574067438       34.4497218360  SOLV      2809            0.0000000000
      8399      2773  TIP3      OH2            17.8108064810       39.5155567438       19.8955218360  SOLV      2810            0.0000000000
      8400      2773  TIP3      H1             18.2230664810       38.7941267438       19.4203218360  SOLV      2810            0.0000000000
      8401      2773  TIP3      H2             18.4924564810       40.1850167438       19.9539518360  SOLV      2810            0.0000000000
      8402      2774  TIP3      OH2            16.7751964810       37.6821967438       33.0528318360  SOLV      2811            0.0000000000
      8403      2774  TIP3      H1             15.9625464810       38.0072267438       32.6653018360  SOLV      2811            0.0000000000
      8404      2774  TIP3      H2             17.0080464810       36.9220467438       32.5197418360  SOLV      2811            0.0000000000
      8405      2775  TIP3      OH2            10.2050464810       39.1312567438       27.3756518360  SOLV      2812            0.0000000000
      8406      2775  TIP3      H1              9.5307264810       38.5018167438       27.6312318360  SOLV      2812            0.0000000000
      8407      2775  TIP3      H2             10.7689664810       38.6471467438       26.7724418360  SOLV      2812            0.0000000000
      8408      2776  TIP3      OH2            15.3477664810       37.2386567438       27.4883618360  SOLV      2813            0.0000000000
      8409      2776  TIP3      H1             15.9515264810       37.7861967438       26.9864618360  SOLV      2813            0.0000000000
      8410      2776  TIP3      H2             14.4779664810       37.5576967438       27.2477718360  SOLV      2813            0.0000000000
      8411      2777  TIP3      OH2            17.0748064810       38.3775267438       25.8214518360  SOLV      2814            0.0000000000
      8412      2777  TIP3      H1             17.6865564810       37.8630967438       25.2948118360  SOLV      2814            0.0000000000
      8413      2777  TIP3      H2             17.4571464810       39.2547367438       25.8448918360  SOLV      2814            0.0000000000
      8414      2778  TIP3      OH2             2.5317964810       37.7652867438       25.1976418360  SOLV      2815            0.0000000000
      8415      2778  TIP3      H1              1.7547764810       37.5307767438       24.6902318360  SOLV      2815            0.0000000000
      8416      2778  TIP3      H2              3.0621564810       36.9684967438       25.2064418360  SOLV      2815            0.0000000000
      8417      2779  TIP3      OH2             1.3681364810       37.5630967438       21.0012518360  SOLV      2816            0.0000000000
      8418      2779  TIP3      H1              1.8072064810       38.1741467438       20.4096018360  SOLV      2816            0.0000000000
      8419      2779  TIP3      H2              0.7343764810       38.1015067438       21.4752518360  SOLV      2816            0.0000000000
      8420      2780  TIP3      OH2             7.1110564810       37.6919967438       25.0109518360  SOLV      2817            0.0000000000
      8421      2780  TIP3      H1              7.9853964810       38.0804267438       24.9813818360  SOLV      2817            0.0000000000
      8422      2780  TIP3      H2              6.9751364810       37.4767767438       25.9336718360  SOLV      2817            0.0000000000
      8423      2781  TIP3      OH2            12.6678964810       37.7219767438       26.6601218360  SOLV      2818            0.0000000000
      8424      2781  TIP3      H1             12.7440564810       37.8171367438       25.7107218360  SOLV      2818            0.0000000000
      8425      2781  TIP3      H2             12.3928164810       36.8142667438       26.7890318360  SOLV      2818            0.0000000000
      8426      2782  TIP3      OH2            14.0211564810       37.7477567438       22.3526218360  SOLV      2819            0.0000000000
      8427      2782  TIP3      H1             13.3182664810       38.3626767438       22.1427618360  SOLV      2819            0.0000000000
      8428      2782  TIP3      H2             13.5762964810       36.9104267438       22.4837118360  SOLV      2819            0.0000000000
      8429      2783  TIP3      OH2             3.2290464810       39.4792467438       19.4436618360  SOLV      2820            0.0000000000
      8430      2783  TIP3      H1              3.7203864810       38.8494867438       18.9162118360  SOLV      2820            0.0000000000
      8431      2783  TIP3      H2              3.8526764810       39.7751867438       20.1067818360  SOLV      2820            0.0000000000
      8432      2784  TIP3      OH2             8.2550564810       39.7723967438       21.9007118360  SOLV      2821            0.0000000000
      8433      2784  TIP3      H1              8.4331864810       39.1257167438       22.5835718360  SOLV      2821            0.0000000000
      8434      2784  TIP3      H2              8.2016764810       40.6061667438       22.3678218360  SOLV      2821            0.0000000000
      8435      2785  TIP3      OH2             2.4895964810       38.2794767438       34.7152618360  SOLV      2822            0.0000000000
      8436      2785  TIP3      H1              2.1234164810       37.5137367438       35.1577318360  SOLV      2822            0.0000000000
      8437      2785  TIP3      H2              3.4024464810       38.3084967438       35.0017718360  SOLV      2822            0.0000000000
      8438      2786  TIP3      OH2             4.4626764810       37.6299167438       36.2509718360  SOLV      2823            0.0000000000
      8439      2786  TIP3      H1              5.3610364810       37.3559367438       36.0663118360  SOLV      2823            0.0000000000
      8440      2786  TIP3      H2              4.0759864810       36.8875167438       36.7152318360  SOLV      2823            0.0000000000
      8441      2787  TIP3      OH2            12.8839064810       36.9624467438       36.4332518360  SOLV      2824            0.0000000000
      8442      2787  TIP3      H1             12.9606264810       36.5365167438       37.2870218360  SOLV      2824            0.0000000000
      8443      2787  TIP3      H2             13.7775664810       36.9759167438       36.0906018360  SOLV      2824            0.0000000000
      8444      2788  TIP3      OH2            30.1100564810       46.9215167438       25.1563918360  SOLV      2825            0.0000000000
      8445      2788  TIP3      H1             30.1991664810       47.8653367438       25.0241018360  SOLV      2825            0.0000000000
      8446      2788  TIP3      H2             29.4718164810       46.6461567438       24.4983318360  SOLV      2825            0.0000000000
      8447      2789  TIP3      OH2            29.0431864810       46.1765867438       28.5752118360  SOLV      2826            0.0000000000
      8448      2789  TIP3      H1             29.0049364810       45.5302167438       29.2801718360  SOLV      2826            0.0000000000
      8449      2789  TIP3      H2             28.7208364810       45.7100267438       27.8040818360  SOLV      2826            0.0000000000
      8450      2790  TIP3      OH2            21.4116864810       45.7907967438       30.1682018360  SOLV      2827            0.0000000000
      8451      2790  TIP3      H1             21.4528964810       45.1651267438       30.8914418360  SOLV      2827            0.0000000000
      8452      2790  TIP3      H2             22.1144564810       46.4146567438       30.3502418360  SOLV      2827            0.0000000000
      8453      2791  TIP3      OH2            32.7492064810       49.1156267438       26.8767218360  SOLV      2828            0.0000000000
      8454      2791  TIP3      H1             32.3084764810       48.3952267438       27.3272818360  SOLV      2828            0.0000000000
      8455      2791  TIP3      H2             32.7361764810       49.8363467438       27.5064918360  SOLV      2828            0.0000000000
      8456      2792  TIP3      OH2            18.9450464810       43.9009467438       24.0959918360  SOLV      2829            0.0000000000
      8457      2792  TIP3      H1             18.4973864810       44.7468167438       24.0776418360  SOLV      2829            0.0000000000
      8458      2792  TIP3      H2             18.3841664810       43.3213667438       23.5805018360  SOLV      2829            0.0000000000
      8459      2793  TIP3      OH2            19.6556564810       46.0629067438       26.2217918360  SOLV      2830            0.0000000000
      8460      2793  TIP3      H1             19.8690064810       45.2930667438       26.7490918360  SOLV      2830            0.0000000000
      8461      2793  TIP3      H2             20.3934164810       46.1525767438       25.6185518360  SOLV      2830            0.0000000000
      8462      2794  TIP3      OH2            27.4326264810       48.6087267438       28.9813118360  SOLV      2831            0.0000000000
      8463      2794  TIP3      H1             27.7364164810       47.9228667438       28.3867218360  SOLV      2831            0.0000000000
      8464      2794  TIP3      H2             28.1540264810       48.7275967438       29.5991118360  SOLV      2831            0.0000000000
      8465      2795  TIP3      OH2            36.0956064810       40.2102567438       29.8419318360  SOLV      2832            0.0000000000
      8466      2795  TIP3      H1             36.1448264810       40.8203767438       30.5778418360  SOLV      2832            0.0000000000
      8467      2795  TIP3      H2             36.5211164810       40.6713467438       29.1190418360  SOLV      2832            0.0000000000
      8468      2796  TIP3      OH2            30.5733264810       43.0029667438       29.3087918360  SOLV      2833            0.0000000000
      8469      2796  TIP3      H1             30.7159164810       42.0566667438       29.3289518360  SOLV      2833            0.0000000000
      8470      2796  TIP3      H2             30.4672264810       43.2099467438       28.3802818360  SOLV      2833            0.0000000000
      8471      2797  TIP3      OH2            23.7281564810       41.1046067438       26.5812718360  SOLV      2834            0.0000000000
      8472      2797  TIP3      H1             23.7712664810       41.9644567438       26.1629018360  SOLV      2834            0.0000000000
      8473      2797  TIP3      H2             23.2705664810       40.5520767438       25.9475918360  SOLV      2834            0.0000000000
      8474      2798  TIP3      OH2            31.4504264810       41.2351667438       24.9821018360  SOLV      2835            0.0000000000
      8475      2798  TIP3      H1             32.0968564810       40.9064867438       25.6068618360  SOLV      2835            0.0000000000
      8476      2798  TIP3      H2             31.9603664810       41.7530667438       24.3592418360  SOLV      2835            0.0000000000
      8477      2799  TIP3      OH2            20.3483064810       43.5011867438       27.3434118360  SOLV      2836            0.0000000000
      8478      2799  TIP3      H1             21.0019664810       42.9513567438       27.7754218360  SOLV      2836            0.0000000000
      8479      2799  TIP3      H2             20.3722364810       43.2270867438       26.4266118360  SOLV      2836            0.0000000000
      8480      2800  TIP3      OH2            25.5047564810       45.0513167438       26.5585618360  SOLV      2837            0.0000000000
      8481      2800  TIP3      H1             26.1208564810       44.5248567438       27.0679618360  SOLV      2837            0.0000000000
      8482      2800  TIP3      H2             24.9186364810       44.4111867438       26.1549218360  SOLV      2837            0.0000000000
      8483      2801  TIP3      OH2            36.4870664810       41.6881767438       32.0779118360  SOLV      2838            0.0000000000
      8484      2801  TIP3      H1             35.7985264810       42.3462467438       31.9825718360  SOLV      2838            0.0000000000
      8485      2801  TIP3      H2             36.5025264810       41.4909667438       33.0144518360  SOLV      2838            0.0000000000
      8486      2802  TIP3      OH2            22.5383464810       40.0224467438       30.6553518360  SOLV      2839            0.0000000000
      8487      2802  TIP3      H1             22.3195164810       40.5525067438       29.8889518360  SOLV      2839            0.0000000000
      8488      2802  TIP3      H2             21.8704364810       40.2489967438       31.3024918360  SOLV      2839            0.0000000000
      8489      2803  TIP3      OH2            29.9073264810       49.5225567438       24.1992618360  SOLV      2840            0.0000000000
      8490      2803  TIP3      H1             29.6118364810       49.1997867438       23.3479518360  SOLV      2840            0.0000000000
      8491      2803  TIP3      H2             29.5831064810       50.4222267438       24.2405218360  SOLV      2840            0.0000000000
      8492      2804  TIP3      OH2            25.1074864810       47.6980167438       30.9427218360  SOLV      2841            0.0000000000
      8493      2804  TIP3      H1             24.3673964810       48.2961667438       31.0462418360  SOLV      2841            0.0000000000
      8494      2804  TIP3      H2             25.8214364810       48.2519767438       30.6270818360  SOLV      2841            0.0000000000
      8495      2805  TIP3      OH2            33.2142664810       40.5260967438       26.9626918360  SOLV      2842            0.0000000000
      8496      2805  TIP3      H1             32.9990664810       39.7604367438       27.4952918360  SOLV      2842            0.0000000000
      8497      2805  TIP3      H2             33.8700064810       40.9985567438       27.4755418360  SOLV      2842            0.0000000000
      8498      2806  TIP3      OH2            22.1320764810       41.9146267438       28.6075718360  SOLV      2843            0.0000000000
      8499      2806  TIP3      H1             22.7457064810       42.5473867438       28.9808118360  SOLV      2843            0.0000000000
      8500      2806  TIP3      H2             22.6441464810       41.4421267438       27.9512618360  SOLV      2843            0.0000000000
      8501      2807  TIP3      OH2            19.6360064810       49.3331067438       22.5118018360  SOLV      2844            0.0000000000
      8502      2807  TIP3      H1             19.3640964810       49.5622067438       21.6230918360  SOLV      2844            0.0000000000
      8503      2807  TIP3      H2             19.6815764810       50.1709867438       22.9723318360  SOLV      2844            0.0000000000
      8504      2808  TIP3      OH2            33.5616764810       39.2412267438       30.6420418360  SOLV      2845            0.0000000000
      8505      2808  TIP3      H1             32.8255964810       39.8519367438       30.6041718360  SOLV      2845            0.0000000000
      8506      2808  TIP3      H2             34.2450764810       39.6561267438       30.1156818360  SOLV      2845            0.0000000000
      8507      2809  TIP3      OH2            26.5648164810       37.3279567438       28.1078418360  SOLV      2846            0.0000000000
      8508      2809  TIP3      H1             26.4472364810       36.3795567438       28.0536718360  SOLV      2846            0.0000000000
      8509      2809  TIP3      H2             25.7098264810       37.6605667438       28.3809518360  SOLV      2846            0.0000000000
      8510      2810  TIP3      OH2            34.3587664810       49.2035667438       32.8358218360  SOLV      2847            0.0000000000
      8511      2810  TIP3      H1             34.4983964810       48.6118167438       32.0965218360  SOLV      2847            0.0000000000
      8512      2810  TIP3      H2             34.5260464810       50.0761567438       32.4797018360  SOLV      2847            0.0000000000
      8513      2811  TIP3      OH2            28.8313064810       46.1655167438       22.6084218360  SOLV      2848            0.0000000000
      8514      2811  TIP3      H1             28.1198564810       46.7004867438       22.2564718360  SOLV      2848            0.0000000000
      8515      2811  TIP3      H2             29.5222664810       46.2207267438       21.9483118360  SOLV      2848            0.0000000000
      8516      2812  TIP3      OH2            28.8852264810       44.6229467438       19.6469218360  SOLV      2849            0.0000000000
      8517      2812  TIP3      H1             29.5862164810       44.6456367438       20.2983218360  SOLV      2849            0.0000000000
      8518      2812  TIP3      H2             29.1875164810       43.9949167438       18.9908518360  SOLV      2849            0.0000000000
      8519      2813  TIP3      OH2            36.2006964810       45.5433667438       30.9018618360  SOLV      2850            0.0000000000
      8520      2813  TIP3      H1             35.5481064810       46.2379267438       30.9909518360  SOLV      2850            0.0000000000
      8521      2813  TIP3      H2             36.6657264810       45.7534567438       30.0920218360  SOLV      2850            0.0000000000
      8522      2814  TIP3      OH2            32.2370764810       46.3748467438       23.5600118360  SOLV      2851            0.0000000000
      8523      2814  TIP3      H1             31.5051764810       46.6032167438       24.1330718360  SOLV      2851            0.0000000000
      8524      2814  TIP3      H2             32.6842964810       45.6611167438       24.0147618360  SOLV      2851            0.0000000000
      8525      2815  TIP3      OH2            32.1344264810       44.5491067438       32.6277118360  SOLV      2852            0.0000000000
      8526      2815  TIP3      H1             32.2143364810       45.3125467438       33.1995618360  SOLV      2852            0.0000000000
      8527      2815  TIP3      H2             31.5331964810       44.8283467438       31.9372218360  SOLV      2852            0.0000000000
      8528      2816  TIP3      OH2            23.8824464810       47.0054667438       25.4425118360  SOLV      2853            0.0000000000
      8529      2816  TIP3      H1             23.5519664810       46.6348067438       24.6242118360  SOLV      2853            0.0000000000
      8530      2816  TIP3      H2             24.4708564810       46.3348667438       25.7893418360  SOLV      2853            0.0000000000
      8531      2817  TIP3      OH2            24.2489964810       45.7740267438       29.0760118360  SOLV      2854            0.0000000000
      8532      2817  TIP3      H1             24.8142464810       45.8954467438       28.3131318360  SOLV      2854            0.0000000000
      8533      2817  TIP3      H2             24.5678864810       46.4115267438       29.7148618360  SOLV      2854            0.0000000000
      8534      2818  TIP3      OH2            31.1080264810       45.5371367438       21.2451318360  SOLV      2855            0.0000000000
      8535      2818  TIP3      H1             31.6875764810       45.6871667438       21.9920218360  SOLV      2855            0.0000000000
      8536      2818  TIP3      H2             31.5220264810       46.0078767438       20.5217718360  SOLV      2855            0.0000000000
      8537      2819  TIP3      OH2            22.0490564810       46.3714067438       33.0217718360  SOLV      2856            0.0000000000
      8538      2819  TIP3      H1             22.1193764810       47.0220867438       33.7202718360  SOLV      2856            0.0000000000
      8539      2819  TIP3      H2             21.1582764810       46.4741567438       32.6868618360  SOLV      2856            0.0000000000
      8540      2820  TIP3      OH2            34.8068664810       37.2871767438       21.0581018360  SOLV      2857            0.0000000000
      8541      2820  TIP3      H1             33.9069364810       37.4260767438       21.3531618360  SOLV      2857            0.0000000000
      8542      2820  TIP3      H2             35.0587064810       38.1186367438       20.6562718360  SOLV      2857            0.0000000000
      8543      2821  TIP3      OH2            22.8727164810       46.0748967438       23.0317918360  SOLV      2858            0.0000000000
      8544      2821  TIP3      H1             22.5808464810       46.8430667438       22.5409218360  SOLV      2858            0.0000000000
      8545      2821  TIP3      H2             22.1982364810       45.4155167438       22.8689318360  SOLV      2858            0.0000000000
      8546      2822  TIP3      OH2            18.9657264810       48.4378167438       31.8467718360  SOLV      2859            0.0000000000
      8547      2822  TIP3      H1             18.4645664810       48.4097567438       31.0317418360  SOLV      2859            0.0000000000
      8548      2822  TIP3      H2             18.9710964810       47.5321367438       32.1565018360  SOLV      2859            0.0000000000
      8549      2823  TIP3      OH2            34.0658264810       43.3774167438       34.8933818360  SOLV      2860            0.0000000000
      8550      2823  TIP3      H1             33.6585064810       43.8579767438       34.1727118360  SOLV      2860            0.0000000000
      8551      2823  TIP3      H2             34.1063964810       42.4720167438       34.5854618360  SOLV      2860            0.0000000000
      8552      2824  TIP3      OH2            21.2147764810       49.7613567438       32.8900518360  SOLV      2861            0.0000000000
      8553      2824  TIP3      H1             21.4309064810       49.3999167438       33.7496318360  SOLV      2861            0.0000000000
      8554      2824  TIP3      H2             20.3592464810       49.3867367438       32.6804018360  SOLV      2861            0.0000000000
      8555      2825  TIP3      OH2            23.8335764810       38.2314067438       28.8854718360  SOLV      2862            0.0000000000
      8556      2825  TIP3      H1             22.9719464810       38.1442267438       28.4777618360  SOLV      2862            0.0000000000
      8557      2825  TIP3      H2             23.8111464810       39.0874167438       29.3132318360  SOLV      2862            0.0000000000
      8558      2826  TIP3      OH2            28.4963564810       37.9534467438       32.2601718360  SOLV      2863            0.0000000000
      8559      2826  TIP3      H1             28.9166664810       37.5381567438       33.0132318360  SOLV      2863            0.0000000000
      8560      2826  TIP3      H2             27.5633164810       37.7747767438       32.3773718360  SOLV      2863            0.0000000000
      8561      2827  TIP3      OH2            31.8228464810       41.7089667438       33.1136218360  SOLV      2864            0.0000000000
      8562      2827  TIP3      H1             31.3087964810       41.5831867438       33.9112218360  SOLV      2864            0.0000000000
      8563      2827  TIP3      H2             31.6673164810       42.6212767438       32.8692418360  SOLV      2864            0.0000000000
      8564      2828  TIP3      OH2            32.5853364810       46.5699667438       18.8749218360  SOLV      2865            0.0000000000
      8565      2828  TIP3      H1             32.6274164810       46.3473567438       17.9449218360  SOLV      2865            0.0000000000
      8566      2828  TIP3      H2             33.4345464810       46.9686767438       19.0649118360  SOLV      2865            0.0000000000
      8567      2829  TIP3      OH2            28.1580864810       40.4457867438       19.5452518360  SOLV      2866            0.0000000000
      8568      2829  TIP3      H1             27.9045664810       40.4649467438       20.4680618360  SOLV      2866            0.0000000000
      8569      2829  TIP3      H2             27.9012964810       39.5743267438       19.2438718360  SOLV      2866            0.0000000000
      8570      2830  TIP3      OH2            23.9245864810       43.1968567438       29.9804918360  SOLV      2867            0.0000000000
      8571      2830  TIP3      H1             23.2827964810       43.1565867438       30.6895018360  SOLV      2867            0.0000000000
      8572      2830  TIP3      H2             23.9617864810       44.1233267438       29.7427918360  SOLV      2867            0.0000000000
      8573      2831  TIP3      OH2            23.9214964810       43.4178667438       24.8924918360  SOLV      2868            0.0000000000
      8574      2831  TIP3      H1             23.0287864810       43.0774767438       24.8338718360  SOLV      2868            0.0000000000
      8575      2831  TIP3      H2             24.3721564810       43.0409567438       24.1368118360  SOLV      2868            0.0000000000
      8576      2832  TIP3      OH2            29.4570464810       43.8338967438       23.7095718360  SOLV      2869            0.0000000000
      8577      2832  TIP3      H1             29.0480764810       44.6487567438       23.4180518360  SOLV      2869            0.0000000000
      8578      2832  TIP3      H2             30.1776664810       43.6939067438       23.0952818360  SOLV      2869            0.0000000000
      8579      2833  TIP3      OH2            28.5592064810       44.0095367438       35.1976418360  SOLV      2870            0.0000000000
      8580      2833  TIP3      H1             27.9965864810       43.3046967438       35.5184218360  SOLV      2870            0.0000000000
      8581      2833  TIP3      H2             29.3855464810       43.8887267438       35.6654018360  SOLV      2870            0.0000000000
      8582      2834  TIP3      OH2            30.4618164810       43.2799367438       26.5235418360  SOLV      2871            0.0000000000
      8583      2834  TIP3      H1             30.2662664810       43.8856167438       25.8086018360  SOLV      2871            0.0000000000
      8584      2834  TIP3      H2             30.6430764810       42.4464567438       26.0891718360  SOLV      2871            0.0000000000
      8585      2835  TIP3      OH2            21.6746364810       43.5172067438       31.8476918360  SOLV      2872            0.0000000000
      8586      2835  TIP3      H1             21.6365764810       43.9173667438       32.7164018360  SOLV      2872            0.0000000000
      8587      2835  TIP3      H2             21.1837464810       42.7004467438       31.9379818360  SOLV      2872            0.0000000000
      8588      2836  TIP3      OH2            25.0403764810       40.8914367438       18.6462918360  SOLV      2873            0.0000000000
      8589      2836  TIP3      H1             24.6094464810       40.4464467438       19.3760318360  SOLV      2873            0.0000000000
      8590      2836  TIP3      H2             24.3222464810       41.2630667438       18.1340418360  SOLV      2873            0.0000000000
      8591      2837  TIP3      OH2            18.2827164810       40.6333867438       25.6981618360  SOLV      2874            0.0000000000
      8592      2837  TIP3      H1             18.9134864810       40.6045967438       26.4175518360  SOLV      2874            0.0000000000
      8593      2837  TIP3      H2             18.7321464810       40.2082567438       24.9677518360  SOLV      2874            0.0000000000
      8594      2838  TIP3      OH2            19.5569264810       41.3795867438       21.1222018360  SOLV      2875            0.0000000000
      8595      2838  TIP3      H1             20.0310964810       41.9705767438       20.5372918360  SOLV      2875            0.0000000000
      8596      2838  TIP3      H2             18.8395664810       41.9098767438       21.4692118360  SOLV      2875            0.0000000000
      8597      2839  TIP3      OH2            29.7257364810       44.9180667438       31.1947818360  SOLV      2876            0.0000000000
      8598      2839  TIP3      H1             30.0492164810       44.2870367438       30.5518318360  SOLV      2876            0.0000000000
      8599      2839  TIP3      H2             29.2856664810       44.3832867438       31.8555218360  SOLV      2876            0.0000000000
      8600      2840  TIP3      OH2            26.5030264810       40.8456167438       25.9789018360  SOLV      2877            0.0000000000
      8601      2840  TIP3      H1             25.5921364810       40.9022967438       26.2675018360  SOLV      2877            0.0000000000
      8602      2840  TIP3      H2             27.0083164810       40.7851667438       26.7896218360  SOLV      2877            0.0000000000
      8603      2841  TIP3      OH2            21.3313664810       42.4742467438       24.8056618360  SOLV      2878            0.0000000000
      8604      2841  TIP3      H1             20.4421664810       42.5737967438       24.4656218360  SOLV      2878            0.0000000000
      8605      2841  TIP3      H2             21.6278564810       41.6325467438       24.4594518360  SOLV      2878            0.0000000000
      8606      2842  TIP3      OH2            24.9845464810       42.4745067438       22.4621218360  SOLV      2879            0.0000000000
      8607      2842  TIP3      H1             25.9160964810       42.6035067438       22.6404318360  SOLV      2879            0.0000000000
      8608      2842  TIP3      H2             24.7695764810       43.1439367438       21.8125918360  SOLV      2879            0.0000000000
      8609      2843  TIP3      OH2            30.9082164810       40.0802467438       29.2430818360  SOLV      2880            0.0000000000
      8610      2843  TIP3      H1             30.2313764810       40.2115567438       29.9070518360  SOLV      2880            0.0000000000
      8611      2843  TIP3      H2             30.4227064810       39.9251967438       28.4328518360  SOLV      2880            0.0000000000
      8612      2844  TIP3      OH2            23.6585664810       43.6687267438       20.0287318360  SOLV      2881            0.0000000000
      8613      2844  TIP3      H1             23.1160764810       43.2891067438       19.3374918360  SOLV      2881            0.0000000000
      8614      2844  TIP3      H2             24.4920564810       43.8631967438       19.6001418360  SOLV      2881            0.0000000000
      8615      2845  TIP3      OH2            21.7937064810       48.2259167438       35.1278918360  SOLV      2882            0.0000000000
      8616      2845  TIP3      H1             22.5259464810       48.4805067438       35.6893418360  SOLV      2882            0.0000000000
      8617      2845  TIP3      H2             21.0135764810       48.4304567438       35.6434318360  SOLV      2882            0.0000000000
      8618      2846  TIP3      OH2            27.8229964810       43.6329167438       27.8658618360  SOLV      2883            0.0000000000
      8619      2846  TIP3      H1             28.3873364810       43.0865767438       27.3188218360  SOLV      2883            0.0000000000
      8620      2846  TIP3      H2             27.6753364810       43.1111067438       28.6546218360  SOLV      2883            0.0000000000
      8621      2847  TIP3      OH2            22.8249664810       39.7695267438       24.2843418360  SOLV      2884            0.0000000000
      8622      2847  TIP3      H1             22.5079164810       38.8670567438       24.2488818360  SOLV      2884            0.0000000000
      8623      2847  TIP3      H2             23.6063764810       39.7712667438       23.7315018360  SOLV      2884            0.0000000000
      8624      2848  TIP3      OH2            26.4495864810       42.0215267438       30.2799018360  SOLV      2885            0.0000000000
      8625      2848  TIP3      H1             25.6141164810       42.4754767438       30.3901418360  SOLV      2885            0.0000000000
      8626      2848  TIP3      H2             26.9736464810       42.2973767438       31.0318918360  SOLV      2885            0.0000000000
      8627      2849  TIP3      OH2            26.9938464810       48.2342967438       21.9645418360  SOLV      2886            0.0000000000
      8628      2849  TIP3      H1             26.2489464810       47.7268267438       21.6423318360  SOLV      2886            0.0000000000
      8629      2849  TIP3      H2             26.8595664810       48.2830967438       22.9110218360  SOLV      2886            0.0000000000
      8630      2850  TIP3      OH2            34.1437364810       47.3671167438       30.7513018360  SOLV      2887            0.0000000000
      8631      2850  TIP3      H1             34.7856164810       47.8237467438       30.2075218360  SOLV      2887            0.0000000000
      8632      2850  TIP3      H2             33.3134264810       47.4803567438       30.2887118360  SOLV      2887            0.0000000000
      8633      2851  TIP3      OH2            30.8915264810       41.0482867438       20.1638018360  SOLV      2888            0.0000000000
      8634      2851  TIP3      H1             29.9529464810       41.1598467438       20.0126818360  SOLV      2888            0.0000000000
      8635      2851  TIP3      H2             31.1887364810       41.9049767438       20.4703718360  SOLV      2888            0.0000000000
      8636      2852  TIP3      OH2            28.5130564810       48.4186267438       33.2014518360  SOLV      2889            0.0000000000
      8637      2852  TIP3      H1             28.1676664810       48.0368667438       34.0084118360  SOLV      2889            0.0000000000
      8638      2852  TIP3      H2             28.3130664810       49.3519867438       33.2727418360  SOLV      2889            0.0000000000
      8639      2853  TIP3      OH2            31.6098764810       42.9155567438       21.8245418360  SOLV      2890            0.0000000000
      8640      2853  TIP3      H1             32.5017764810       42.7780567438       22.1436618360  SOLV      2890            0.0000000000
      8641      2853  TIP3      H2             31.6662364810       43.7061667438       21.2878918360  SOLV      2890            0.0000000000
      8642      2854  TIP3      OH2            22.1186764810       47.5292967438       27.7343318360  SOLV      2891            0.0000000000
      8643      2854  TIP3      H1             22.8633964810       47.5268667438       27.1329818360  SOLV      2891            0.0000000000
      8644      2854  TIP3      H2             22.1963364810       46.7056767438       28.2158418360  SOLV      2891            0.0000000000
      8645      2855  TIP3      OH2            29.1192564810       49.6927267438       20.9900018360  SOLV      2892            0.0000000000
      8646      2855  TIP3      H1             28.8240964810       50.5195167438       21.3714818360  SOLV      2892            0.0000000000
      8647      2855  TIP3      H2             28.4162564810       49.0734167438       21.1861418360  SOLV      2892            0.0000000000
      8648      2856  TIP3      OH2            19.1266464810       45.9899867438       33.0491818360  SOLV      2893            0.0000000000
      8649      2856  TIP3      H1             19.3495064810       45.5719467438       33.8809318360  SOLV      2893            0.0000000000
      8650      2856  TIP3      H2             18.5246564810       45.3774867438       32.6264618360  SOLV      2893            0.0000000000
      8651      2857  TIP3      OH2            26.1431364810       45.5069767438       35.2621518360  SOLV      2894            0.0000000000
      8652      2857  TIP3      H1             25.8472164810       45.3412767438       34.3670618360  SOLV      2894            0.0000000000
      8653      2857  TIP3      H2             27.0746564810       45.2870067438       35.2515418360  SOLV      2894            0.0000000000
      8654      2858  TIP3      OH2            36.4947464810       43.1249667438       21.5192118360  SOLV      2895            0.0000000000
      8655      2858  TIP3      H1             35.9403764810       42.7287667438       20.8469618360  SOLV      2895            0.0000000000
      8656      2858  TIP3      H2             36.5951064810       44.0354867438       21.2415418360  SOLV      2895            0.0000000000
      8657      2859  TIP3      OH2            36.4579464810       48.9251367438       34.3563618360  SOLV      2896            0.0000000000
      8658      2859  TIP3      H1             35.6067964810       49.1635167438       33.9890018360  SOLV      2896            0.0000000000
      8659      2859  TIP3      H2             37.0482864810       48.9084567438       33.6030718360  SOLV      2896            0.0000000000
      8660      2860  TIP3      OH2            31.9503064810       46.7189567438       29.0056118360  SOLV      2897            0.0000000000
      8661      2860  TIP3      H1             31.0219964810       46.4871467438       28.9785418360  SOLV      2897            0.0000000000
      8662      2860  TIP3      H2             32.4014164810       45.9419367438       28.6754918360  SOLV      2897            0.0000000000
      8663      2861  TIP3      OH2            20.2483864810       45.9095267438       19.7257218360  SOLV      2898            0.0000000000
      8664      2861  TIP3      H1             20.8643764810       46.5362467438       20.1052018360  SOLV      2898            0.0000000000
      8665      2861  TIP3      H2             19.3866464810       46.2255067438       19.9973718360  SOLV      2898            0.0000000000
      8666      2862  TIP3      OH2            25.9208464810       48.7101067438       24.7149118360  SOLV      2899            0.0000000000
      8667      2862  TIP3      H1             25.6798464810       49.6355467438       24.7564418360  SOLV      2899            0.0000000000
      8668      2862  TIP3      H2             25.1802064810       48.2512367438       25.1113018360  SOLV      2899            0.0000000000
      8669      2863  TIP3      OH2            29.9795864810       48.9585367438       30.7305818360  SOLV      2900            0.0000000000
      8670      2863  TIP3      H1             29.5537164810       48.7307067438       31.5569818360  SOLV      2900            0.0000000000
      8671      2863  TIP3      H2             30.5601664810       48.2197167438       30.5481118360  SOLV      2900            0.0000000000
      8672      2864  TIP3      OH2            32.1824764810       49.8875867438       19.8044818360  SOLV      2901            0.0000000000
      8673      2864  TIP3      H1             32.5357864810       49.5075667438       20.6088318360  SOLV      2901            0.0000000000
      8674      2864  TIP3      H2             31.2338264810       49.7940667438       19.8914118360  SOLV      2901            0.0000000000
      8675      2865  TIP3      OH2            20.7605964810       40.7432567438       32.6073218360  SOLV      2902            0.0000000000
      8676      2865  TIP3      H1             19.8678264810       41.0817967438       32.5397218360  SOLV      2902            0.0000000000
      8677      2865  TIP3      H2             20.6618764810       39.8878667438       33.0254018360  SOLV      2902            0.0000000000
      8678      2866  TIP3      OH2            33.0484064810       48.5597867438       22.0312718360  SOLV      2903            0.0000000000
      8679      2866  TIP3      H1             32.7711664810       47.8317167438       22.5873818360  SOLV      2903            0.0000000000
      8680      2866  TIP3      H2             33.9757064810       48.6789867438       22.2365318360  SOLV      2903            0.0000000000
      8681      2867  TIP3      OH2            21.6634264810       47.8219067438       21.2182818360  SOLV      2904            0.0000000000
      8682      2867  TIP3      H1             20.9773564810       48.1741567438       21.7852518360  SOLV      2904            0.0000000000
      8683      2867  TIP3      H2             22.1862164810       48.5848667438       20.9717118360  SOLV      2904            0.0000000000
      8684      2868  TIP3      OH2            29.4949364810       40.4842867438       31.4971818360  SOLV      2905            0.0000000000
      8685      2868  TIP3      H1             30.1937264810       40.5581567438       32.1471518360  SOLV      2905            0.0000000000
      8686      2868  TIP3      H2             29.1140764810       39.6197867438       31.6514718360  SOLV      2905            0.0000000000
      8687      2869  TIP3      OH2            30.2794264810       40.1364567438       22.5944118360  SOLV      2906            0.0000000000
      8688      2869  TIP3      H1             30.4992564810       40.6079967438       21.7909518360  SOLV      2906            0.0000000000
      8689      2869  TIP3      H2             30.8378264810       40.5307167438       23.2644718360  SOLV      2906            0.0000000000
      8690      2870  TIP3      OH2            27.4794164810       41.8643367438       23.4292518360  SOLV      2907            0.0000000000
      8691      2870  TIP3      H1             28.2916764810       42.3686567438       23.4754218360  SOLV      2907            0.0000000000
      8692      2870  TIP3      H2             27.2347164810       41.7193067438       24.3432118360  SOLV      2907            0.0000000000
      8693      2871  TIP3      OH2            28.0150564810       42.8506067438       32.6139118360  SOLV      2908            0.0000000000
      8694      2871  TIP3      H1             28.1340864810       43.4241467438       33.3709518360  SOLV      2908            0.0000000000
      8695      2871  TIP3      H2             28.6705164810       42.1625467438       32.7286918360  SOLV      2908            0.0000000000
      8696      2872  TIP3      OH2            28.3630864810       38.9456367438       24.3673618360  SOLV      2909            0.0000000000
      8697      2872  TIP3      H1             28.0164364810       39.5626967438       25.0117918360  SOLV      2909            0.0000000000
      8698      2872  TIP3      H2             29.0217764810       39.4462067438       23.8859118360  SOLV      2909            0.0000000000
      8699      2873  TIP3      OH2            24.0207864810       40.0085767438       21.0546118360  SOLV      2910            0.0000000000
      8700      2873  TIP3      H1             23.9372664810       40.8968867438       21.4012518360  SOLV      2910            0.0000000000
      8701      2873  TIP3      H2             24.9108164810       39.7432467438       21.2862918360  SOLV      2910            0.0000000000
      8702      2874  TIP3      OH2            34.2196364810       40.7576367438       33.4488818360  SOLV      2911            0.0000000000
      8703      2874  TIP3      H1             33.3032164810       41.0198067438       33.3612518360  SOLV      2911            0.0000000000
      8704      2874  TIP3      H2             34.5551364810       40.7545367438       32.5524118360  SOLV      2911            0.0000000000
      8705      2875  TIP3      OH2            32.8217364810       44.5077367438       27.5446118360  SOLV      2912            0.0000000000
      8706      2875  TIP3      H1             32.0241764810       44.0927567438       27.2161118360  SOLV      2912            0.0000000000
      8707      2875  TIP3      H2             33.2668464810       43.8171067438       28.0356618360  SOLV      2912            0.0000000000
      8708      2876  TIP3      OH2            20.5952364810       43.1000967438       19.2310018360  SOLV      2913            0.0000000000
      8709      2876  TIP3      H1             20.5504964810       44.0394067438       19.4097018360  SOLV      2913            0.0000000000
      8710      2876  TIP3      H2             19.7075564810       42.8645867438       18.9612118360  SOLV      2913            0.0000000000
      8711      2877  TIP3      OH2            21.4034364810       37.8817567438       27.9041018360  SOLV      2914            0.0000000000
      8712      2877  TIP3      H1             21.1744164810       37.9410067438       26.9766018360  SOLV      2914            0.0000000000
      8713      2877  TIP3      H2             20.9607764810       37.0903067438       28.2105118360  SOLV      2914            0.0000000000
      8714      2878  TIP3      OH2            19.5290864810       48.2452467438       36.3489118360  SOLV      2915            0.0000000000
      8715      2878  TIP3      H1             19.6731364810       47.3433167438       36.0625818360  SOLV      2915            0.0000000000
      8716      2878  TIP3      H2             18.7568264810       48.5314567438       35.8611418360  SOLV      2915            0.0000000000
      8717      2879  TIP3      OH2            23.8704564810       48.5888167438       18.4813718360  SOLV      2916            0.0000000000
      8718      2879  TIP3      H1             23.9348664810       47.7947767438       19.0120118360  SOLV      2916            0.0000000000
      8719      2879  TIP3      H2             24.5233764810       48.4700967438       17.7915718360  SOLV      2916            0.0000000000
      8720      2880  TIP3      OH2            26.1846964810       48.2150567438       35.7815518360  SOLV      2917            0.0000000000
      8721      2880  TIP3      H1             25.8560764810       48.4858667438       34.9242918360  SOLV      2917            0.0000000000
      8722      2880  TIP3      H2             26.3365164810       47.2740367438       35.6940518360  SOLV      2917            0.0000000000
      8723      2881  TIP3      OH2            29.2227964810       49.6359867438       18.2171718360  SOLV      2918            0.0000000000
      8724      2881  TIP3      H1             28.9542064810       49.8161967438       19.1180618360  SOLV      2918            0.0000000000
      8725      2881  TIP3      H2             29.0163564810       48.7106067438       18.0857518360  SOLV      2918            0.0000000000
      8726      2882  TIP3      OH2            31.9192164810       48.1307867438       33.1647818360  SOLV      2919            0.0000000000
      8727      2882  TIP3      H1             32.6646964810       48.7191567438       33.0451818360  SOLV      2919            0.0000000000
      8728      2882  TIP3      H2             31.1618964810       48.7127567438       33.2280918360  SOLV      2919            0.0000000000
      8729      2883  TIP3      OH2            20.3617364810       45.4455767438       35.7688418360  SOLV      2920            0.0000000000
      8730      2883  TIP3      H1             20.7698564810       44.5882367438       35.6479018360  SOLV      2920            0.0000000000
      8731      2883  TIP3      H2             20.1014964810       45.4597067438       36.6898718360  SOLV      2920            0.0000000000
      8732      2884  TIP3      OH2            25.0198364810       46.5614367438       20.7871718360  SOLV      2921            0.0000000000
      8733      2884  TIP3      H1             24.5600364810       46.0772667438       21.4730218360  SOLV      2921            0.0000000000
      8734      2884  TIP3      H2             25.2747064810       45.8929767438       20.1512218360  SOLV      2921            0.0000000000
      8735      2885  TIP3      OH2            24.3087664810       44.4541467438       33.1431318360  SOLV      2922            0.0000000000
      8736      2885  TIP3      H1             23.6903764810       45.1288067438       33.4236018360  SOLV      2922            0.0000000000
      8737      2885  TIP3      H2             24.6528864810       44.7755367438       32.3097518360  SOLV      2922            0.0000000000
      8738      2886  TIP3      OH2            26.0908764810       44.8046167438       19.0494918360  SOLV      2923            0.0000000000
      8739      2886  TIP3      H1             25.9103764810       44.6497367438       18.1223218360  SOLV      2923            0.0000000000
      8740      2886  TIP3      H2             27.0409264810       44.9124867438       19.0942818360  SOLV      2923            0.0000000000
      8741      2887  TIP3      OH2            29.3285864810       46.9256767438       36.4206118360  SOLV      2924            0.0000000000
      8742      2887  TIP3      H1             30.2817064810       47.0095867438       36.3932118360  SOLV      2924            0.0000000000
      8743      2887  TIP3      H2             29.1680464810       46.2138567438       37.0401018360  SOLV      2924            0.0000000000
      8744      2888  TIP3      OH2            35.4807064810       47.1590367438       18.4953018360  SOLV      2925            0.0000000000
      8745      2888  TIP3      H1             35.2071864810       46.7345867438       17.6821318360  SOLV      2925            0.0000000000
      8746      2888  TIP3      H2             35.5201164810       48.0904867438       18.2783418360  SOLV      2925            0.0000000000
      8747      2889  TIP3      OH2            24.6481364810       41.8092267438       34.2254418360  SOLV      2926            0.0000000000
      8748      2889  TIP3      H1             24.7982264810       41.0803567438       33.6234118360  SOLV      2926            0.0000000000
      8749      2889  TIP3      H2             24.6503764810       42.5863967438       33.6666618360  SOLV      2926            0.0000000000
      8750      2890  TIP3      OH2            25.0607064810       40.1788067438       31.7181818360  SOLV      2927            0.0000000000
      8751      2890  TIP3      H1             25.5964564810       40.6304767438       31.0661118360  SOLV      2927            0.0000000000
      8752      2890  TIP3      H2             24.2086664810       40.0707867438       31.2955918360  SOLV      2927            0.0000000000
      8753      2891  TIP3      OH2            26.6425464810       45.6184267438       31.9577018360  SOLV      2928            0.0000000000
      8754      2891  TIP3      H1             27.3930264810       45.4621767438       31.3844818360  SOLV      2928            0.0000000000
      8755      2891  TIP3      H2             26.3033764810       46.4700867438       31.6822518360  SOLV      2928            0.0000000000
      8756      2892  TIP3      OH2            31.0581664810       43.4336067438       36.9862318360  SOLV      2929            0.0000000000
      8757      2892  TIP3      H1             31.2502964810       42.5025467438       36.8746818360  SOLV      2929            0.0000000000
      8758      2892  TIP3      H2             31.9157964810       43.8585567438       36.9757718360  SOLV      2929            0.0000000000
      8759      2893  TIP3      OH2            32.3748864810       46.2221267438       35.0635018360  SOLV      2930            0.0000000000
      8760      2893  TIP3      H1             32.0933864810       46.9315867438       34.4858818360  SOLV      2930            0.0000000000
      8761      2893  TIP3      H2             33.3173164810       46.1494267438       34.9126218360  SOLV      2930            0.0000000000
      8762      2894  TIP3      OH2            23.1267664810       43.0075767438       36.1370018360  SOLV      2931            0.0000000000
      8763      2894  TIP3      H1             22.3596664810       42.4750567438       35.9267618360  SOLV      2931            0.0000000000
      8764      2894  TIP3      H2             23.8056664810       42.6976167438       35.5376318360  SOLV      2931            0.0000000000
      8765      2895  TIP3      OH2            25.8662564810       37.6353767438       32.1495418360  SOLV      2932            0.0000000000
      8766      2895  TIP3      H1             25.7682164810       38.5816967438       32.0441618360  SOLV      2932            0.0000000000
      8767      2895  TIP3      H2             25.1238764810       37.2627567438       31.6738918360  SOLV      2932            0.0000000000
      8768      2896  TIP3      OH2            27.1303064810       41.9569167438       35.7133818360  SOLV      2933            0.0000000000
      8769      2896  TIP3      H1             26.8948464810       41.7375867438       36.6148718360  SOLV      2933            0.0000000000
      8770      2896  TIP3      H2             26.3469964810       41.7500367438       35.2036318360  SOLV      2933            0.0000000000
      8771      2897  TIP3      OH2            29.8459664810       41.0842667438       34.7887318360  SOLV      2934            0.0000000000
      8772      2897  TIP3      H1             28.8985064810       41.1162367438       34.9210618360  SOLV      2934            0.0000000000
      8773      2897  TIP3      H2             30.1586364810       40.4589767438       35.4425518360  SOLV      2934            0.0000000000
      8774      2898  TIP3      OH2            31.4801164810       39.7183767438       36.7939218360  SOLV      2935            0.0000000000
      8775      2898  TIP3      H1             31.3832964810       38.7661067438       36.7881118360  SOLV      2935            0.0000000000
      8776      2898  TIP3      H2             31.1584264810       39.9870567438       37.6544718360  SOLV      2935            0.0000000000
      8777      2899  TIP3      OH2            21.3070464810       40.9279567438       35.8414718360  SOLV      2936            0.0000000000
      8778      2899  TIP3      H1             21.5187864810       40.2215667438       35.2312218360  SOLV      2936            0.0000000000
      8779      2899  TIP3      H2             21.1957964810       40.4905567438       36.6855918360  SOLV      2936            0.0000000000
      8780      2900  TIP3      OH2            26.0880664810       36.9291167438       34.8208218360  SOLV      2937            0.0000000000
      8781      2900  TIP3      H1             26.7999064810       36.2893367438       34.8067318360  SOLV      2937            0.0000000000
      8782      2900  TIP3      H2             25.9871064810       37.1959467438       33.9071318360  SOLV      2937            0.0000000000
      8783      2901  TIP3      OH2            26.4418164810       38.6119567438       36.8744518360  SOLV      2938            0.0000000000
      8784      2901  TIP3      H1             26.3100364810       38.1363367438       36.0543018360  SOLV      2938            0.0000000000
      8785      2901  TIP3      H2             25.8425564810       39.3563167438       36.8191618360  SOLV      2938            0.0000000000
      8786      2902  TIP3      OH2            35.9389864810       48.0278467438       22.4703418360  SOLV      2939            0.0000000000
      8787      2902  TIP3      H1             36.7891264810       48.4489367438       22.5975018360  SOLV      2939            0.0000000000
      8788      2902  TIP3      H2             35.9444964810       47.2878567438       23.0774818360  SOLV      2939            0.0000000000
      8789      2903  TIP3      OH2            36.3335464810       46.0815867438       24.2939118360  SOLV      2940            0.0000000000
      8790      2903  TIP3      H1             35.6070064810       45.6018467438       24.6916718360  SOLV      2940            0.0000000000
      8791      2903  TIP3      H2             36.9148764810       46.2870567438       25.0260718360  SOLV      2940            0.0000000000
      8792      2904  TIP3      OH2            36.0926664810       48.8663367438       29.2416718360  SOLV      2941            0.0000000000
      8793      2904  TIP3      H1             36.9260864810       48.4883367438       28.9610318360  SOLV      2941            0.0000000000
      8794      2904  TIP3      H2             36.2046964810       49.8094567438       29.1225818360  SOLV      2941            0.0000000000
      8795      2905  TIP3      OH2            36.6018564810       45.9824367438       20.6850418360  SOLV      2942            0.0000000000
      8796      2905  TIP3      H1             36.0799664810       46.3388467438       19.9661318360  SOLV      2942            0.0000000000
      8797      2905  TIP3      H2             36.5687764810       46.6572167438       21.3631318360  SOLV      2942            0.0000000000
      8798      2906  TIP3      OH2            34.9507564810       43.2219967438       19.2357518360  SOLV      2943            0.0000000000
      8799      2906  TIP3      H1             35.0471964810       43.8886967438       18.5557218360  SOLV      2943            0.0000000000
      8800      2906  TIP3      H2             34.8107164810       42.4066267438       18.7543018360  SOLV      2943            0.0000000000
      8801      2907  TIP3      OH2            34.1202264810       44.6022367438       24.8567818360  SOLV      2944            0.0000000000
      8802      2907  TIP3      H1             33.9701064810       43.6570967438       24.8365618360  SOLV      2944            0.0000000000
      8803      2907  TIP3      H2             33.7666764810       44.8833767438       25.7006918360  SOLV      2944            0.0000000000
      8804      2908  TIP3      OH2            19.1554664810       46.6804567438       28.8671618360  SOLV      2945            0.0000000000
      8805      2908  TIP3      H1             19.3397564810       46.5986267438       27.9314518360  SOLV      2945            0.0000000000
      8806      2908  TIP3      H2             20.0047564810       46.5561567438       29.2908018360  SOLV      2945            0.0000000000
      8807      2909  TIP3      OH2            34.9765164810       46.5725667438       34.4956118360  SOLV      2946            0.0000000000
      8808      2909  TIP3      H1             35.5592464810       45.8377967438       34.6873318360  SOLV      2946            0.0000000000
      8809      2909  TIP3      H2             35.5404464810       47.3445967438       34.5421918360  SOLV      2946            0.0000000000
      8810      2910  TIP3      OH2            36.4732264810       44.4751467438       35.1801518360  SOLV      2947            0.0000000000
      8811      2910  TIP3      H1             35.6098964810       44.0963567438       35.0146218360  SOLV      2947            0.0000000000
      8812      2910  TIP3      H2             37.0775964810       43.7366267438       35.1057318360  SOLV      2947            0.0000000000
      8813      2911  TIP3      OH2            34.1981364810       40.6299767438       18.3533018360  SOLV      2948            0.0000000000
      8814      2911  TIP3      H1             34.8087164810       40.2586567438       18.9901218360  SOLV      2948            0.0000000000
      8815      2911  TIP3      H2             33.3612864810       40.2086667438       18.5493018360  SOLV      2948            0.0000000000
      8816      2912  TIP3      OH2            33.8307064810       42.1848167438       23.3192918360  SOLV      2949            0.0000000000
      8817      2912  TIP3      H1             34.1104164810       41.2778567438       23.4434618360  SOLV      2949            0.0000000000
      8818      2912  TIP3      H2             34.5898764810       42.6189667438       22.9302118360  SOLV      2949            0.0000000000
      8819      2913  TIP3      OH2            34.4425364810       42.7665567438       28.7551818360  SOLV      2950            0.0000000000
      8820      2913  TIP3      H1             35.3753364810       42.9785467438       28.7207818360  SOLV      2950            0.0000000000
      8821      2913  TIP3      H2             34.2072864810       42.8677667438       29.6774818360  SOLV      2950            0.0000000000
      8822      2914  TIP3      OH2            34.4717264810       43.5030867438       31.5311218360  SOLV      2951            0.0000000000
      8823      2914  TIP3      H1             33.6288564810       43.7711267438       31.8971018360  SOLV      2951            0.0000000000
      8824      2914  TIP3      H2             34.9141564810       44.3252767438       31.3202318360  SOLV      2951            0.0000000000
      8825      2915  TIP3      OH2            18.7529464810       41.9509567438       35.0080418360  SOLV      2952            0.0000000000
      8826      2915  TIP3      H1             19.6724364810       41.8287867438       35.2443518360  SOLV      2952            0.0000000000
      8827      2915  TIP3      H2             18.3033964810       41.2009267438       35.3973918360  SOLV      2952            0.0000000000
      8828      2916  TIP3      OH2            36.7548864810       37.4831067438       36.8846218360  SOLV      2953            0.0000000000
      8829      2916  TIP3      H1             37.1045864810       36.8294567438       36.2790918360  SOLV      2953            0.0000000000
      8830      2916  TIP3      H2             36.9018364810       38.3205167438       36.4448818360  SOLV      2953            0.0000000000
      8831      2917  TIP3      OH2            34.4441864810       39.4477467438       23.3674918360  SOLV      2954            0.0000000000
      8832      2917  TIP3      H1             34.6266864810       38.9988967438       24.1929918360  SOLV      2954            0.0000000000
      8833      2917  TIP3      H2             33.8444764810       38.8631867438       22.9039518360  SOLV      2954            0.0000000000
      8834      2918  TIP3      OH2            19.9741964810       40.2631167438       27.8993318360  SOLV      2955            0.0000000000
      8835      2918  TIP3      H1             20.4193564810       39.4713667438       28.2013018360  SOLV      2955            0.0000000000
      8836      2918  TIP3      H2             20.4404964810       40.9796367438       28.3298918360  SOLV      2955            0.0000000000
      8837      2919  TIP3      OH2            18.2782264810       43.2624167438       28.9683518360  SOLV      2956            0.0000000000
      8838      2919  TIP3      H1             18.7702064810       43.0414667438       28.1775518360  SOLV      2956            0.0000000000
      8839      2919  TIP3      H2             18.6403164810       44.1027567438       29.2493018360  SOLV      2956            0.0000000000
      8840      2920  TIP3      OH2            36.2746064810       39.5925667438       35.2337518360  SOLV      2957            0.0000000000
      8841      2920  TIP3      H1             35.3571764810       39.8632767438       35.1981018360  SOLV      2957            0.0000000000
      8842      2920  TIP3      H2             36.3975464810       39.0574067438       34.4497218360  SOLV      2957            0.0000000000
      8843      2921  TIP3      OH2            36.3108064810       39.5155567438       19.8955218360  SOLV      2958            0.0000000000
      8844      2921  TIP3      H1             36.7230664810       38.7941267438       19.4203218360  SOLV      2958            0.0000000000
      8845      2921  TIP3      H2             36.9924564810       40.1850167438       19.9539518360  SOLV      2958            0.0000000000
      8846      2922  TIP3      OH2            18.5918764810       39.5203267438       23.0225918360  SOLV      2959            0.0000000000
      8847      2922  TIP3      H1             17.6667164810       39.7289867438       22.8931418360  SOLV      2959            0.0000000000
      8848      2922  TIP3      H2             19.0458664810       40.0044067438       22.3328218360  SOLV      2959            0.0000000000
      8849      2923  TIP3      OH2            18.5554164810       38.2582267438       31.3668418360  SOLV      2960            0.0000000000
      8850      2923  TIP3      H1             17.8904664810       38.0122567438       32.0099318360  SOLV      2960            0.0000000000
      8851      2923  TIP3      H2             18.1125464810       38.8802667438       30.7896418360  SOLV      2960            0.0000000000
      8852      2924  TIP3      OH2            35.2751964810       37.6821967438       33.0528318360  SOLV      2961            0.0000000000
      8853      2924  TIP3      H1             34.4625464810       38.0072267438       32.6653018360  SOLV      2961            0.0000000000
      8854      2924  TIP3      H2             35.5080464810       36.9220467438       32.5197418360  SOLV      2961            0.0000000000
      8855      2925  TIP3      OH2            28.7050464810       39.1312567438       27.3756518360  SOLV      2962            0.0000000000
      8856      2925  TIP3      H1             28.0307264810       38.5018167438       27.6312318360  SOLV      2962            0.0000000000
      8857      2925  TIP3      H2             29.2689664810       38.6471467438       26.7724418360  SOLV      2962            0.0000000000
      8858      2926  TIP3      OH2            33.8477664810       37.2386567438       27.4883618360  SOLV      2963            0.0000000000
      8859      2926  TIP3      H1             34.4515264810       37.7861967438       26.9864618360  SOLV      2963            0.0000000000
      8860      2926  TIP3      H2             32.9779664810       37.5576967438       27.2477718360  SOLV      2963            0.0000000000
      8861      2927  TIP3      OH2            35.5748064810       38.3775267438       25.8214518360  SOLV      2964            0.0000000000
      8862      2927  TIP3      H1             36.1865564810       37.8630967438       25.2948118360  SOLV      2964            0.0000000000
      8863      2927  TIP3      H2             35.9571464810       39.2547367438       25.8448918360  SOLV      2964            0.0000000000
      8864      2928  TIP3      OH2            21.0317964810       37.7652867438       25.1976418360  SOLV      2965            0.0000000000
      8865      2928  TIP3      H1             20.2547764810       37.5307767438       24.6902318360  SOLV      2965            0.0000000000
      8866      2928  TIP3      H2             21.5621564810       36.9684967438       25.2064418360  SOLV      2965            0.0000000000
      8867      2929  TIP3      OH2            19.8681364810       37.5630967438       21.0012518360  SOLV      2966            0.0000000000
      8868      2929  TIP3      H1             20.3072064810       38.1741467438       20.4096018360  SOLV      2966            0.0000000000
      8869      2929  TIP3      H2             19.2343764810       38.1015067438       21.4752518360  SOLV      2966            0.0000000000
      8870      2930  TIP3      OH2            25.6110564810       37.6919967438       25.0109518360  SOLV      2967            0.0000000000
      8871      2930  TIP3      H1             26.4853964810       38.0804267438       24.9813818360  SOLV      2967            0.0000000000
      8872      2930  TIP3      H2             25.4751364810       37.4767767438       25.9336718360  SOLV      2967            0.0000000000
      8873      2931  TIP3      OH2            31.1678964810       37.7219767438       26.6601218360  SOLV      2968            0.0000000000
      8874      2931  TIP3      H1             31.2440564810       37.8171367438       25.7107218360  SOLV      2968            0.0000000000
      8875      2931  TIP3      H2             30.8928164810       36.8142667438       26.7890318360  SOLV      2968            0.0000000000
      8876      2932  TIP3      OH2            32.5211564810       37.7477567438       22.3526218360  SOLV      2969            0.0000000000
      8877      2932  TIP3      H1             31.8182664810       38.3626767438       22.1427618360  SOLV      2969            0.0000000000
      8878      2932  TIP3      H2             32.0762964810       36.9104267438       22.4837118360  SOLV      2969            0.0000000000
      8879      2933  TIP3      OH2            21.7290464810       39.4792467438       19.4436618360  SOLV      2970            0.0000000000
      8880      2933  TIP3      H1             22.2203864810       38.8494867438       18.9162118360  SOLV      2970            0.0000000000
      8881      2933  TIP3      H2             22.3526764810       39.7751867438       20.1067818360  SOLV      2970            0.0000000000
      8882      2934  TIP3      OH2            26.7550564810       39.7723967438       21.9007118360  SOLV      2971            0.0000000000
      8883      2934  TIP3      H1             26.9331864810       39.1257167438       22.5835718360  SOLV      2971            0.0000000000
      8884      2934  TIP3      H2             26.7016764810       40.6061667438       22.3678218360  SOLV      2971            0.0000000000
      8885      2935  TIP3      OH2            20.9895964810       38.2794767438       34.7152618360  SOLV      2972            0.0000000000
      8886      2935  TIP3      H1             20.6234164810       37.5137367438       35.1577318360  SOLV      2972            0.0000000000
      8887      2935  TIP3      H2             21.9024464810       38.3084967438       35.0017718360  SOLV      2972            0.0000000000
      8888      2936  TIP3      OH2            22.9626764810       37.6299167438       36.2509718360  SOLV      2973            0.0000000000
      8889      2936  TIP3      H1             23.8610364810       37.3559367438       36.0663118360  SOLV      2973            0.0000000000
      8890      2936  TIP3      H2             22.5759864810       36.8875167438       36.7152318360  SOLV      2973            0.0000000000
      8891      2937  TIP3      OH2            31.3839064810       36.9624467438       36.4332518360  SOLV      2974            0.0000000000
      8892      2937  TIP3      H1             31.4606264810       36.5365167438       37.2870218360  SOLV      2974            0.0000000000
      8893      2937  TIP3      H2             32.2775664810       36.9759167438       36.0906018360  SOLV      2974            0.0000000000
      8894      2938  TIP3      OH2            48.6100564810       46.9215167438       25.1563918360  SOLV      2975            0.0000000000
      8895      2938  TIP3      H1             48.6991664810       47.8653367438       25.0241018360  SOLV      2975            0.0000000000
      8896      2938  TIP3      H2             47.9718164810       46.6461567438       24.4983318360  SOLV      2975            0.0000000000
      8897      2939  TIP3      OH2            47.5431864810       46.1765867438       28.5752118360  SOLV      2976            0.0000000000
      8898      2939  TIP3      H1             47.5049364810       45.5302167438       29.2801718360  SOLV      2976            0.0000000000
      8899      2939  TIP3      H2             47.2208364810       45.7100267438       27.8040818360  SOLV      2976            0.0000000000
      8900      2940  TIP3      OH2            39.9116864810       45.7907967438       30.1682018360  SOLV      2977            0.0000000000
      8901      2940  TIP3      H1             39.9528964810       45.1651267438       30.8914418360  SOLV      2977            0.0000000000
      8902      2940  TIP3      H2             40.6144564810       46.4146567438       30.3502418360  SOLV      2977            0.0000000000
      8903      2941  TIP3      OH2            37.4450464810       43.9009467438       24.0959918360  SOLV      2978            0.0000000000
      8904      2941  TIP3      H1             36.9973864810       44.7468167438       24.0776418360  SOLV      2978            0.0000000000
      8905      2941  TIP3      H2             36.8841664810       43.3213667438       23.5805018360  SOLV      2978            0.0000000000
      8906      2942  TIP3      OH2            38.1556564810       46.0629067438       26.2217918360  SOLV      2979            0.0000000000
      8907      2942  TIP3      H1             38.3690064810       45.2930667438       26.7490918360  SOLV      2979            0.0000000000
      8908      2942  TIP3      H2             38.8934164810       46.1525767438       25.6185518360  SOLV      2979            0.0000000000
      8909      2943  TIP3      OH2            45.9326264810       48.6087267438       28.9813118360  SOLV      2980            0.0000000000
      8910      2943  TIP3      H1             46.2364164810       47.9228667438       28.3867218360  SOLV      2980            0.0000000000
      8911      2943  TIP3      H2             46.6540264810       48.7275967438       29.5991118360  SOLV      2980            0.0000000000
      8912      2944  TIP3      OH2            49.0733264810       43.0029667438       29.3087918360  SOLV      2981            0.0000000000
      8913      2944  TIP3      H1             49.2159164810       42.0566667438       29.3289518360  SOLV      2981            0.0000000000
      8914      2944  TIP3      H2             48.9672264810       43.2099467438       28.3802818360  SOLV      2981            0.0000000000
      8915      2945  TIP3      OH2            42.2281564810       41.1046067438       26.5812718360  SOLV      2982            0.0000000000
      8916      2945  TIP3      H1             42.2712664810       41.9644567438       26.1629018360  SOLV      2982            0.0000000000
      8917      2945  TIP3      H2             41.7705664810       40.5520767438       25.9475918360  SOLV      2982            0.0000000000
      8918      2946  TIP3      OH2            38.8483064810       43.5011867438       27.3434118360  SOLV      2983            0.0000000000
      8919      2946  TIP3      H1             39.5019664810       42.9513567438       27.7754218360  SOLV      2983            0.0000000000
      8920      2946  TIP3      H2             38.8722364810       43.2270867438       26.4266118360  SOLV      2983            0.0000000000
      8921      2947  TIP3      OH2            44.0047564810       45.0513167438       26.5585618360  SOLV      2984            0.0000000000
      8922      2947  TIP3      H1             44.6208564810       44.5248567438       27.0679618360  SOLV      2984            0.0000000000
      8923      2947  TIP3      H2             43.4186364810       44.4111867438       26.1549218360  SOLV      2984            0.0000000000
      8924      2948  TIP3      OH2            41.0383464810       40.0224467438       30.6553518360  SOLV      2985            0.0000000000
      8925      2948  TIP3      H1             40.8195164810       40.5525067438       29.8889518360  SOLV      2985            0.0000000000
      8926      2948  TIP3      H2             40.3704364810       40.2489967438       31.3024918360  SOLV      2985            0.0000000000
      8927      2949  TIP3      OH2            48.4073264810       49.5225567438       24.1992618360  SOLV      2986            0.0000000000
      8928      2949  TIP3      H1             48.1118364810       49.1997867438       23.3479518360  SOLV      2986            0.0000000000
      8929      2949  TIP3      H2             48.0831064810       50.4222267438       24.2405218360  SOLV      2986            0.0000000000
      8930      2950  TIP3      OH2            43.6074864810       47.6980167438       30.9427218360  SOLV      2987            0.0000000000
      8931      2950  TIP3      H1             42.8673964810       48.2961667438       31.0462418360  SOLV      2987            0.0000000000
      8932      2950  TIP3      H2             44.3214364810       48.2519767438       30.6270818360  SOLV      2987            0.0000000000
      8933      2951  TIP3      OH2            40.6320764810       41.9146267438       28.6075718360  SOLV      2988            0.0000000000
      8934      2951  TIP3      H1             41.2457064810       42.5473867438       28.9808118360  SOLV      2988            0.0000000000
      8935      2951  TIP3      H2             41.1441464810       41.4421267438       27.9512618360  SOLV      2988            0.0000000000
      8936      2952  TIP3      OH2            38.1360064810       49.3331067438       22.5118018360  SOLV      2989            0.0000000000
      8937      2952  TIP3      H1             37.8640964810       49.5622067438       21.6230918360  SOLV      2989            0.0000000000
      8938      2952  TIP3      H2             38.1815764810       50.1709867438       22.9723318360  SOLV      2989            0.0000000000
      8939      2953  TIP3      OH2            45.0648164810       37.3279567438       28.1078418360  SOLV      2990            0.0000000000
      8940      2953  TIP3      H1             44.9472364810       36.3795567438       28.0536718360  SOLV      2990            0.0000000000
      8941      2953  TIP3      H2             44.2098264810       37.6605667438       28.3809518360  SOLV      2990            0.0000000000
      8942      2954  TIP3      OH2            47.3313064810       46.1655167438       22.6084218360  SOLV      2991            0.0000000000
      8943      2954  TIP3      H1             46.6198564810       46.7004867438       22.2564718360  SOLV      2991            0.0000000000
      8944      2954  TIP3      H2             48.0222664810       46.2207267438       21.9483118360  SOLV      2991            0.0000000000
      8945      2955  TIP3      OH2            47.3852264810       44.6229467438       19.6469218360  SOLV      2992            0.0000000000
      8946      2955  TIP3      H1             48.0862164810       44.6456367438       20.2983218360  SOLV      2992            0.0000000000
      8947      2955  TIP3      H2             47.6875164810       43.9949167438       18.9908518360  SOLV      2992            0.0000000000
      8948      2956  TIP3      OH2            42.3824464810       47.0054667438       25.4425118360  SOLV      2993            0.0000000000
      8949      2956  TIP3      H1             42.0519664810       46.6348067438       24.6242118360  SOLV      2993            0.0000000000
      8950      2956  TIP3      H2             42.9708564810       46.3348667438       25.7893418360  SOLV      2993            0.0000000000
      8951      2957  TIP3      OH2            42.7489964810       45.7740267438       29.0760118360  SOLV      2994            0.0000000000
      8952      2957  TIP3      H1             43.3142464810       45.8954467438       28.3131318360  SOLV      2994            0.0000000000
      8953      2957  TIP3      H2             43.0678864810       46.4115267438       29.7148618360  SOLV      2994            0.0000000000
      8954      2958  TIP3      OH2            49.6080264810       45.5371367438       21.2451318360  SOLV      2995            0.0000000000
      8955      2958  TIP3      H1             50.1875764810       45.6871667438       21.9920218360  SOLV      2995            0.0000000000
      8956      2958  TIP3      H2             50.0220264810       46.0078767438       20.5217718360  SOLV      2995            0.0000000000
      8957      2959  TIP3      OH2            40.5490564810       46.3714067438       33.0217718360  SOLV      2996            0.0000000000
      8958      2959  TIP3      H1             40.6193764810       47.0220867438       33.7202718360  SOLV      2996            0.0000000000
      8959      2959  TIP3      H2             39.6582764810       46.4741567438       32.6868618360  SOLV      2996            0.0000000000
      8960      2960  TIP3      OH2            41.3727164810       46.0748967438       23.0317918360  SOLV      2997            0.0000000000
      8961      2960  TIP3      H1             41.0808464810       46.8430667438       22.5409218360  SOLV      2997            0.0000000000
      8962      2960  TIP3      H2             40.6982364810       45.4155167438       22.8689318360  SOLV      2997            0.0000000000
      8963      2961  TIP3      OH2            37.4657264810       48.4378167438       31.8467718360  SOLV      2998            0.0000000000
      8964      2961  TIP3      H1             36.9645664810       48.4097567438       31.0317418360  SOLV      2998            0.0000000000
      8965      2961  TIP3      H2             37.4710964810       47.5321367438       32.1565018360  SOLV      2998            0.0000000000
      8966      2962  TIP3      OH2            39.7147764810       49.7613567438       32.8900518360  SOLV      2999            0.0000000000
      8967      2962  TIP3      H1             39.9309064810       49.3999167438       33.7496318360  SOLV      2999            0.0000000000
      8968      2962  TIP3      H2             38.8592464810       49.3867367438       32.6804018360  SOLV      2999            0.0000000000
      8969      2963  TIP3      OH2            42.3335764810       38.2314067438       28.8854718360  SOLV      3000            0.0000000000
      8970      2963  TIP3      H1             41.4719464810       38.1442267438       28.4777618360  SOLV      3000            0.0000000000
      8971      2963  TIP3      H2             42.3111464810       39.0874167438       29.3132318360  SOLV      3000            0.0000000000
      8972      2964  TIP3      OH2            46.9963564810       37.9534467438       32.2601718360  SOLV      3001            0.0000000000
      8973      2964  TIP3      H1             47.4166664810       37.5381567438       33.0132318360  SOLV      3001            0.0000000000
      8974      2964  TIP3      H2             46.0633164810       37.7747767438       32.3773718360  SOLV      3001            0.0000000000
      8975      2965  TIP3      OH2            46.6580864810       40.4457867438       19.5452518360  SOLV      3002            0.0000000000
      8976      2965  TIP3      H1             46.4045664810       40.4649467438       20.4680618360  SOLV      3002            0.0000000000
      8977      2965  TIP3      H2             46.4012964810       39.5743267438       19.2438718360  SOLV      3002            0.0000000000
      8978      2966  TIP3      OH2            42.4245864810       43.1968567438       29.9804918360  SOLV      3003            0.0000000000
      8979      2966  TIP3      H1             41.7827964810       43.1565867438       30.6895018360  SOLV      3003            0.0000000000
      8980      2966  TIP3      H2             42.4617864810       44.1233267438       29.7427918360  SOLV      3003            0.0000000000
      8981      2967  TIP3      OH2            42.4214964810       43.4178667438       24.8924918360  SOLV      3004            0.0000000000
      8982      2967  TIP3      H1             41.5287864810       43.0774767438       24.8338718360  SOLV      3004            0.0000000000
      8983      2967  TIP3      H2             42.8721564810       43.0409567438       24.1368118360  SOLV      3004            0.0000000000
      8984      2968  TIP3      OH2            47.9570464810       43.8338967438       23.7095718360  SOLV      3005            0.0000000000
      8985      2968  TIP3      H1             47.5480764810       44.6487567438       23.4180518360  SOLV      3005            0.0000000000
      8986      2968  TIP3      H2             48.6776664810       43.6939067438       23.0952818360  SOLV      3005            0.0000000000
      8987      2969  TIP3      OH2            47.0592064810       44.0095367438       35.1976418360  SOLV      3006            0.0000000000
      8988      2969  TIP3      H1             46.4965864810       43.3046967438       35.5184218360  SOLV      3006            0.0000000000
      8989      2969  TIP3      H2             47.8855464810       43.8887267438       35.6654018360  SOLV      3006            0.0000000000
      8990      2970  TIP3      OH2            48.9618164810       43.2799367438       26.5235418360  SOLV      3007            0.0000000000
      8991      2970  TIP3      H1             48.7662664810       43.8856167438       25.8086018360  SOLV      3007            0.0000000000
      8992      2970  TIP3      H2             49.1430764810       42.4464567438       26.0891718360  SOLV      3007            0.0000000000
      8993      2971  TIP3      OH2            40.1746364810       43.5172067438       31.8476918360  SOLV      3008            0.0000000000
      8994      2971  TIP3      H1             40.1365764810       43.9173667438       32.7164018360  SOLV      3008            0.0000000000
      8995      2971  TIP3      H2             39.6837464810       42.7004467438       31.9379818360  SOLV      3008            0.0000000000
      8996      2972  TIP3      OH2            43.5403764810       40.8914367438       18.6462918360  SOLV      3009            0.0000000000
      8997      2972  TIP3      H1             43.1094464810       40.4464467438       19.3760318360  SOLV      3009            0.0000000000
      8998      2972  TIP3      H2             42.8222464810       41.2630667438       18.1340418360  SOLV      3009            0.0000000000
      8999      2973  TIP3      OH2            36.7827164810       40.6333867438       25.6981618360  SOLV      3010            0.0000000000
      9000      2973  TIP3      H1             37.4134864810       40.6045967438       26.4175518360  SOLV      3010            0.0000000000
      9001      2973  TIP3      H2             37.2321464810       40.2082567438       24.9677518360  SOLV      3010            0.0000000000
      9002      2974  TIP3      OH2            38.0569264810       41.3795867438       21.1222018360  SOLV      3011            0.0000000000
      9003      2974  TIP3      H1             38.5310964810       41.9705767438       20.5372918360  SOLV      3011            0.0000000000
      9004      2974  TIP3      H2             37.3395664810       41.9098767438       21.4692118360  SOLV      3011            0.0000000000
      9005      2975  TIP3      OH2            48.2257364810       44.9180667438       31.1947818360  SOLV      3012            0.0000000000
      9006      2975  TIP3      H1             48.5492164810       44.2870367438       30.5518318360  SOLV      3012            0.0000000000
      9007      2975  TIP3      H2             47.7856664810       44.3832867438       31.8555218360  SOLV      3012            0.0000000000
      9008      2976  TIP3      OH2            45.0030264810       40.8456167438       25.9789018360  SOLV      3013            0.0000000000
      9009      2976  TIP3      H1             44.0921364810       40.9022967438       26.2675018360  SOLV      3013            0.0000000000
      9010      2976  TIP3      H2             45.5083164810       40.7851667438       26.7896218360  SOLV      3013            0.0000000000
      9011      2977  TIP3      OH2            39.8313664810       42.4742467438       24.8056618360  SOLV      3014            0.0000000000
      9012      2977  TIP3      H1             38.9421664810       42.5737967438       24.4656218360  SOLV      3014            0.0000000000
      9013      2977  TIP3      H2             40.1278564810       41.6325467438       24.4594518360  SOLV      3014            0.0000000000
      9014      2978  TIP3      OH2            43.4845464810       42.4745067438       22.4621218360  SOLV      3015            0.0000000000
      9015      2978  TIP3      H1             44.4160964810       42.6035067438       22.6404318360  SOLV      3015            0.0000000000
      9016      2978  TIP3      H2             43.2695764810       43.1439367438       21.8125918360  SOLV      3015            0.0000000000
      9017      2979  TIP3      OH2            49.4082164810       40.0802467438       29.2430818360  SOLV      3016            0.0000000000
      9018      2979  TIP3      H1             48.7313764810       40.2115567438       29.9070518360  SOLV      3016            0.0000000000
      9019      2979  TIP3      H2             48.9227064810       39.9251967438       28.4328518360  SOLV      3016            0.0000000000
      9020      2980  TIP3      OH2            42.1585664810       43.6687267438       20.0287318360  SOLV      3017            0.0000000000
      9021      2980  TIP3      H1             41.6160764810       43.2891067438       19.3374918360  SOLV      3017            0.0000000000
      9022      2980  TIP3      H2             42.9920564810       43.8631967438       19.6001418360  SOLV      3017            0.0000000000
      9023      2981  TIP3      OH2            40.2937064810       48.2259167438       35.1278918360  SOLV      3018            0.0000000000
      9024      2981  TIP3      H1             41.0259464810       48.4805067438       35.6893418360  SOLV      3018            0.0000000000
      9025      2981  TIP3      H2             39.5135764810       48.4304567438       35.6434318360  SOLV      3018            0.0000000000
      9026      2982  TIP3      OH2            46.3229964810       43.6329167438       27.8658618360  SOLV      3019            0.0000000000
      9027      2982  TIP3      H1             46.8873364810       43.0865767438       27.3188218360  SOLV      3019            0.0000000000
      9028      2982  TIP3      H2             46.1753364810       43.1111067438       28.6546218360  SOLV      3019            0.0000000000
      9029      2983  TIP3      OH2            41.3249664810       39.7695267438       24.2843418360  SOLV      3020            0.0000000000
      9030      2983  TIP3      H1             41.0079164810       38.8670567438       24.2488818360  SOLV      3020            0.0000000000
      9031      2983  TIP3      H2             42.1063764810       39.7712667438       23.7315018360  SOLV      3020            0.0000000000
      9032      2984  TIP3      OH2            44.9495864810       42.0215267438       30.2799018360  SOLV      3021            0.0000000000
      9033      2984  TIP3      H1             44.1141164810       42.4754767438       30.3901418360  SOLV      3021            0.0000000000
      9034      2984  TIP3      H2             45.4736464810       42.2973767438       31.0318918360  SOLV      3021            0.0000000000
      9035      2985  TIP3      OH2            45.4938464810       48.2342967438       21.9645418360  SOLV      3022            0.0000000000
      9036      2985  TIP3      H1             44.7489464810       47.7268267438       21.6423318360  SOLV      3022            0.0000000000
      9037      2985  TIP3      H2             45.3595664810       48.2830967438       22.9110218360  SOLV      3022            0.0000000000
      9038      2986  TIP3      OH2            49.3915264810       41.0482867438       20.1638018360  SOLV      3023            0.0000000000
      9039      2986  TIP3      H1             48.4529464810       41.1598467438       20.0126818360  SOLV      3023            0.0000000000
      9040      2986  TIP3      H2             49.6887364810       41.9049767438       20.4703718360  SOLV      3023            0.0000000000
      9041      2987  TIP3      OH2            47.0130564810       48.4186267438       33.2014518360  SOLV      3024            0.0000000000
      9042      2987  TIP3      H1             46.6676664810       48.0368667438       34.0084118360  SOLV      3024            0.0000000000
      9043      2987  TIP3      H2             46.8130664810       49.3519867438       33.2727418360  SOLV      3024            0.0000000000
      9044      2988  TIP3      OH2            40.6186764810       47.5292967438       27.7343318360  SOLV      3025            0.0000000000
      9045      2988  TIP3      H1             41.3633964810       47.5268667438       27.1329818360  SOLV      3025            0.0000000000
      9046      2988  TIP3      H2             40.6963364810       46.7056767438       28.2158418360  SOLV      3025            0.0000000000
      9047      2989  TIP3      OH2            47.6192564810       49.6927267438       20.9900018360  SOLV      3026            0.0000000000
      9048      2989  TIP3      H1             47.3240964810       50.5195167438       21.3714818360  SOLV      3026            0.0000000000
      9049      2989  TIP3      H2             46.9162564810       49.0734167438       21.1861418360  SOLV      3026            0.0000000000
      9050      2990  TIP3      OH2            37.6266464810       45.9899867438       33.0491818360  SOLV      3027            0.0000000000
      9051      2990  TIP3      H1             37.8495064810       45.5719467438       33.8809318360  SOLV      3027            0.0000000000
      9052      2990  TIP3      H2             37.0246564810       45.3774867438       32.6264618360  SOLV      3027            0.0000000000
      9053      2991  TIP3      OH2            44.6431364810       45.5069767438       35.2621518360  SOLV      3028            0.0000000000
      9054      2991  TIP3      H1             44.3472164810       45.3412767438       34.3670618360  SOLV      3028            0.0000000000
      9055      2991  TIP3      H2             45.5746564810       45.2870067438       35.2515418360  SOLV      3028            0.0000000000
      9056      2992  TIP3      OH2            38.7483864810       45.9095267438       19.7257218360  SOLV      3029            0.0000000000
      9057      2992  TIP3      H1             39.3643764810       46.5362467438       20.1052018360  SOLV      3029            0.0000000000
      9058      2992  TIP3      H2             37.8866464810       46.2255067438       19.9973718360  SOLV      3029            0.0000000000
      9059      2993  TIP3      OH2            44.4208464810       48.7101067438       24.7149118360  SOLV      3030            0.0000000000
      9060      2993  TIP3      H1             44.1798464810       49.6355467438       24.7564418360  SOLV      3030            0.0000000000
      9061      2993  TIP3      H2             43.6802064810       48.2512367438       25.1113018360  SOLV      3030            0.0000000000
      9062      2994  TIP3      OH2            48.4795864810       48.9585367438       30.7305818360  SOLV      3031            0.0000000000
      9063      2994  TIP3      H1             48.0537164810       48.7307067438       31.5569818360  SOLV      3031            0.0000000000
      9064      2994  TIP3      H2             49.0601664810       48.2197167438       30.5481118360  SOLV      3031            0.0000000000
      9065      2995  TIP3      OH2            39.2605964810       40.7432567438       32.6073218360  SOLV      3032            0.0000000000
      9066      2995  TIP3      H1             38.3678264810       41.0817967438       32.5397218360  SOLV      3032            0.0000000000
      9067      2995  TIP3      H2             39.1618764810       39.8878667438       33.0254018360  SOLV      3032            0.0000000000
      9068      2996  TIP3      OH2            40.1634264810       47.8219067438       21.2182818360  SOLV      3033            0.0000000000
      9069      2996  TIP3      H1             39.4773564810       48.1741567438       21.7852518360  SOLV      3033            0.0000000000
      9070      2996  TIP3      H2             40.6862164810       48.5848667438       20.9717118360  SOLV      3033            0.0000000000
      9071      2997  TIP3      OH2            47.9949364810       40.4842867438       31.4971818360  SOLV      3034            0.0000000000
      9072      2997  TIP3      H1             48.6937264810       40.5581567438       32.1471518360  SOLV      3034            0.0000000000
      9073      2997  TIP3      H2             47.6140764810       39.6197867438       31.6514718360  SOLV      3034            0.0000000000
      9074      2998  TIP3      OH2            48.7794264810       40.1364567438       22.5944118360  SOLV      3035            0.0000000000
      9075      2998  TIP3      H1             48.9992564810       40.6079967438       21.7909518360  SOLV      3035            0.0000000000
      9076      2998  TIP3      H2             49.3378264810       40.5307167438       23.2644718360  SOLV      3035            0.0000000000
      9077      2999  TIP3      OH2            45.9794164810       41.8643367438       23.4292518360  SOLV      3036            0.0000000000
      9078      2999  TIP3      H1             46.7916764810       42.3686567438       23.4754218360  SOLV      3036            0.0000000000
      9079      2999  TIP3      H2             45.7347164810       41.7193067438       24.3432118360  SOLV      3036            0.0000000000
      9080      3000  TIP3      OH2            46.5150564810       42.8506067438       32.6139118360  SOLV      3037            0.0000000000
      9081      3000  TIP3      H1             46.6340864810       43.4241467438       33.3709518360  SOLV      3037            0.0000000000
      9082      3000  TIP3      H2             47.1705164810       42.1625467438       32.7286918360  SOLV      3037            0.0000000000
      9083      3001  TIP3      OH2            46.8630864810       38.9456367438       24.3673618360  SOLV      3038            0.0000000000
      9084      3001  TIP3      H1             46.5164364810       39.5626967438       25.0117918360  SOLV      3038            0.0000000000
      9085      3001  TIP3      H2             47.5217764810       39.4462067438       23.8859118360  SOLV      3038            0.0000000000
      9086      3002  TIP3      OH2            42.5207864810       40.0085767438       21.0546118360  SOLV      3039            0.0000000000
      9087      3002  TIP3      H1             42.4372664810       40.8968867438       21.4012518360  SOLV      3039            0.0000000000
      9088      3002  TIP3      H2             43.4108164810       39.7432467438       21.2862918360  SOLV      3039            0.0000000000
      9089      3003  TIP3      OH2            39.0952364810       43.1000967438       19.2310018360  SOLV      3040            0.0000000000
      9090      3003  TIP3      H1             39.0504964810       44.0394067438       19.4097018360  SOLV      3040            0.0000000000
      9091      3003  TIP3      H2             38.2075564810       42.8645867438       18.9612118360  SOLV      3040            0.0000000000
      9092      3004  TIP3      OH2            39.9034364810       37.8817567438       27.9041018360  SOLV      3041            0.0000000000
      9093      3004  TIP3      H1             39.6744164810       37.9410067438       26.9766018360  SOLV      3041            0.0000000000
      9094      3004  TIP3      H2             39.4607764810       37.0903067438       28.2105118360  SOLV      3041            0.0000000000
      9095      3005  TIP3      OH2            38.0290864810       48.2452467438       36.3489118360  SOLV      3042            0.0000000000
      9096      3005  TIP3      H1             38.1731364810       47.3433167438       36.0625818360  SOLV      3042            0.0000000000
      9097      3005  TIP3      H2             37.2568264810       48.5314567438       35.8611418360  SOLV      3042            0.0000000000
      9098      3006  TIP3      OH2            42.3704564810       48.5888167438       18.4813718360  SOLV      3043            0.0000000000
      9099      3006  TIP3      H1             42.4348664810       47.7947767438       19.0120118360  SOLV      3043            0.0000000000
      9100      3006  TIP3      H2             43.0233764810       48.4700967438       17.7915718360  SOLV      3043            0.0000000000
      9101      3007  TIP3      OH2            44.6846964810       48.2150567438       35.7815518360  SOLV      3044            0.0000000000
      9102      3007  TIP3      H1             44.3560764810       48.4858667438       34.9242918360  SOLV      3044            0.0000000000
      9103      3007  TIP3      H2             44.8365164810       47.2740367438       35.6940518360  SOLV      3044            0.0000000000
      9104      3008  TIP3      OH2            47.7227964810       49.6359867438       18.2171718360  SOLV      3045            0.0000000000
      9105      3008  TIP3      H1             47.4542064810       49.8161967438       19.1180618360  SOLV      3045            0.0000000000
      9106      3008  TIP3      H2             47.5163564810       48.7106067438       18.0857518360  SOLV      3045            0.0000000000
      9107      3009  TIP3      OH2            38.8617364810       45.4455767438       35.7688418360  SOLV      3046            0.0000000000
      9108      3009  TIP3      H1             39.2698564810       44.5882367438       35.6479018360  SOLV      3046            0.0000000000
      9109      3009  TIP3      H2             38.6014964810       45.4597067438       36.6898718360  SOLV      3046            0.0000000000
      9110      3010  TIP3      OH2            43.5198364810       46.5614367438       20.7871718360  SOLV      3047            0.0000000000
      9111      3010  TIP3      H1             43.0600364810       46.0772667438       21.4730218360  SOLV      3047            0.0000000000
      9112      3010  TIP3      H2             43.7747064810       45.8929767438       20.1512218360  SOLV      3047            0.0000000000
      9113      3011  TIP3      OH2            42.8087664810       44.4541467438       33.1431318360  SOLV      3048            0.0000000000
      9114      3011  TIP3      H1             42.1903764810       45.1288067438       33.4236018360  SOLV      3048            0.0000000000
      9115      3011  TIP3      H2             43.1528864810       44.7755367438       32.3097518360  SOLV      3048            0.0000000000
      9116      3012  TIP3      OH2            44.5908764810       44.8046167438       19.0494918360  SOLV      3049            0.0000000000
      9117      3012  TIP3      H1             44.4103764810       44.6497367438       18.1223218360  SOLV      3049            0.0000000000
      9118      3012  TIP3      H2             45.5409264810       44.9124867438       19.0942818360  SOLV      3049            0.0000000000
      9119      3013  TIP3      OH2            47.8285864810       46.9256767438       36.4206118360  SOLV      3050            0.0000000000
      9120      3013  TIP3      H1             48.7817064810       47.0095867438       36.3932118360  SOLV      3050            0.0000000000
      9121      3013  TIP3      H2             47.6680464810       46.2138567438       37.0401018360  SOLV      3050            0.0000000000
      9122      3014  TIP3      OH2            43.1481364810       41.8092267438       34.2254418360  SOLV      3051            0.0000000000
      9123      3014  TIP3      H1             43.2982264810       41.0803567438       33.6234118360  SOLV      3051            0.0000000000
      9124      3014  TIP3      H2             43.1503764810       42.5863967438       33.6666618360  SOLV      3051            0.0000000000
      9125      3015  TIP3      OH2            43.5607064810       40.1788067438       31.7181818360  SOLV      3052            0.0000000000
      9126      3015  TIP3      H1             44.0964564810       40.6304767438       31.0661118360  SOLV      3052            0.0000000000
      9127      3015  TIP3      H2             42.7086664810       40.0707867438       31.2955918360  SOLV      3052            0.0000000000
      9128      3016  TIP3      OH2            45.1425464810       45.6184267438       31.9577018360  SOLV      3053            0.0000000000
      9129      3016  TIP3      H1             45.8930264810       45.4621767438       31.3844818360  SOLV      3053            0.0000000000
      9130      3016  TIP3      H2             44.8033764810       46.4700867438       31.6822518360  SOLV      3053            0.0000000000
      9131      3017  TIP3      OH2            49.5581664810       43.4336067438       36.9862318360  SOLV      3054            0.0000000000
      9132      3017  TIP3      H1             49.7502964810       42.5025467438       36.8746818360  SOLV      3054            0.0000000000
      9133      3017  TIP3      H2             50.4157964810       43.8585567438       36.9757718360  SOLV      3054            0.0000000000
      9134      3018  TIP3      OH2            41.6267664810       43.0075767438       36.1370018360  SOLV      3055            0.0000000000
      9135      3018  TIP3      H1             40.8596664810       42.4750567438       35.9267618360  SOLV      3055            0.0000000000
      9136      3018  TIP3      H2             42.3056664810       42.6976167438       35.5376318360  SOLV      3055            0.0000000000
      9137      3019  TIP3      OH2            44.3662564810       37.6353767438       32.1495418360  SOLV      3056            0.0000000000
      9138      3019  TIP3      H1             44.2682164810       38.5816967438       32.0441618360  SOLV      3056            0.0000000000
      9139      3019  TIP3      H2             43.6238764810       37.2627567438       31.6738918360  SOLV      3056            0.0000000000
      9140      3020  TIP3      OH2            45.6303064810       41.9569167438       35.7133818360  SOLV      3057            0.0000000000
      9141      3020  TIP3      H1             45.3948464810       41.7375867438       36.6148718360  SOLV      3057            0.0000000000
      9142      3020  TIP3      H2             44.8469964810       41.7500367438       35.2036318360  SOLV      3057            0.0000000000
      9143      3021  TIP3      OH2            48.3459664810       41.0842667438       34.7887318360  SOLV      3058            0.0000000000
      9144      3021  TIP3      H1             47.3985064810       41.1162367438       34.9210618360  SOLV      3058            0.0000000000
      9145      3021  TIP3      H2             48.6586364810       40.4589767438       35.4425518360  SOLV      3058            0.0000000000
      9146      3022  TIP3      OH2            49.9801164810       39.7183767438       36.7939218360  SOLV      3059            0.0000000000
      9147      3022  TIP3      H1             49.8832964810       38.7661067438       36.7881118360  SOLV      3059            0.0000000000
      9148      3022  TIP3      H2             49.6584264810       39.9870567438       37.6544718360  SOLV      3059            0.0000000000
      9149      3023  TIP3      OH2            39.8070464810       40.9279567438       35.8414718360  SOLV      3060            0.0000000000
      9150      3023  TIP3      H1             40.0187864810       40.2215667438       35.2312218360  SOLV      3060            0.0000000000
      9151      3023  TIP3      H2             39.6957964810       40.4905567438       36.6855918360  SOLV      3060            0.0000000000
      9152      3024  TIP3      OH2            44.5880664810       36.9291167438       34.8208218360  SOLV      3061            0.0000000000
      9153      3024  TIP3      H1             45.2999064810       36.2893367438       34.8067318360  SOLV      3061            0.0000000000
      9154      3024  TIP3      H2             44.4871064810       37.1959467438       33.9071318360  SOLV      3061            0.0000000000
      9155      3025  TIP3      OH2            44.9418164810       38.6119567438       36.8744518360  SOLV      3062            0.0000000000
      9156      3025  TIP3      H1             44.8100364810       38.1363367438       36.0543018360  SOLV      3062            0.0000000000
      9157      3025  TIP3      H2             44.3425564810       39.3563167438       36.8191618360  SOLV      3062            0.0000000000
      9158      3026  TIP3      OH2            37.6554664810       46.6804567438       28.8671618360  SOLV      3063            0.0000000000
      9159      3026  TIP3      H1             37.8397564810       46.5986267438       27.9314518360  SOLV      3063            0.0000000000
      9160      3026  TIP3      H2             38.5047564810       46.5561567438       29.2908018360  SOLV      3063            0.0000000000
      9161      3027  TIP3      OH2            37.2529464810       41.9509567438       35.0080418360  SOLV      3064            0.0000000000
      9162      3027  TIP3      H1             38.1724364810       41.8287867438       35.2443518360  SOLV      3064            0.0000000000
      9163      3027  TIP3      H2             36.8033964810       41.2009267438       35.3973918360  SOLV      3064            0.0000000000
      9164      3028  TIP3      OH2            38.4741964810       40.2631167438       27.8993318360  SOLV      3065            0.0000000000
      9165      3028  TIP3      H1             38.9193564810       39.4713667438       28.2013018360  SOLV      3065            0.0000000000
      9166      3028  TIP3      H2             38.9404964810       40.9796367438       28.3298918360  SOLV      3065            0.0000000000
      9167      3029  TIP3      OH2            36.7782264810       43.2624167438       28.9683518360  SOLV      3066            0.0000000000
      9168      3029  TIP3      H1             37.2702064810       43.0414667438       28.1775518360  SOLV      3066            0.0000000000
      9169      3029  TIP3      H2             37.1403164810       44.1027567438       29.2493018360  SOLV      3066            0.0000000000
      9170      3030  TIP3      OH2            37.0918764810       39.5203267438       23.0225918360  SOLV      3067            0.0000000000
      9171      3030  TIP3      H1             36.1667164810       39.7289867438       22.8931418360  SOLV      3067            0.0000000000
      9172      3030  TIP3      H2             37.5458664810       40.0044067438       22.3328218360  SOLV      3067            0.0000000000
      9173      3031  TIP3      OH2            37.0554164810       38.2582267438       31.3668418360  SOLV      3068            0.0000000000
      9174      3031  TIP3      H1             36.3904664810       38.0122567438       32.0099318360  SOLV      3068            0.0000000000
      9175      3031  TIP3      H2             36.6125464810       38.8802667438       30.7896418360  SOLV      3068            0.0000000000
      9176      3032  TIP3      OH2            47.2050464810       39.1312567438       27.3756518360  SOLV      3069            0.0000000000
      9177      3032  TIP3      H1             46.5307264810       38.5018167438       27.6312318360  SOLV      3069            0.0000000000
      9178      3032  TIP3      H2             47.7689664810       38.6471467438       26.7724418360  SOLV      3069            0.0000000000
      9179      3033  TIP3      OH2            39.5317964810       37.7652867438       25.1976418360  SOLV      3070            0.0000000000
      9180      3033  TIP3      H1             38.7547764810       37.5307767438       24.6902318360  SOLV      3070            0.0000000000
      9181      3033  TIP3      H2             40.0621564810       36.9684967438       25.2064418360  SOLV      3070            0.0000000000
      9182      3034  TIP3      OH2            38.3681364810       37.5630967438       21.0012518360  SOLV      3071            0.0000000000
      9183      3034  TIP3      H1             38.8072064810       38.1741467438       20.4096018360  SOLV      3071            0.0000000000
      9184      3034  TIP3      H2             37.7343764810       38.1015067438       21.4752518360  SOLV      3071            0.0000000000
      9185      3035  TIP3      OH2            44.1110564810       37.6919967438       25.0109518360  SOLV      3072            0.0000000000
      9186      3035  TIP3      H1             44.9853964810       38.0804267438       24.9813818360  SOLV      3072            0.0000000000
      9187      3035  TIP3      H2             43.9751364810       37.4767767438       25.9336718360  SOLV      3072            0.0000000000
      9188      3036  TIP3      OH2            49.6678964810       37.7219767438       26.6601218360  SOLV      3073            0.0000000000
      9189      3036  TIP3      H1             49.7440564810       37.8171367438       25.7107218360  SOLV      3073            0.0000000000
      9190      3036  TIP3      H2             49.3928164810       36.8142667438       26.7890318360  SOLV      3073            0.0000000000
      9191      3037  TIP3      OH2            40.2290464810       39.4792467438       19.4436618360  SOLV      3074            0.0000000000
      9192      3037  TIP3      H1             40.7203864810       38.8494867438       18.9162118360  SOLV      3074            0.0000000000
      9193      3037  TIP3      H2             40.8526764810       39.7751867438       20.1067818360  SOLV      3074            0.0000000000
      9194      3038  TIP3      OH2            45.2550564810       39.7723967438       21.9007118360  SOLV      3075            0.0000000000
      9195      3038  TIP3      H1             45.4331864810       39.1257167438       22.5835718360  SOLV      3075            0.0000000000
      9196      3038  TIP3      H2             45.2016764810       40.6061667438       22.3678218360  SOLV      3075            0.0000000000
      9197      3039  TIP3      OH2            39.4895964810       38.2794767438       34.7152618360  SOLV      3076            0.0000000000
      9198      3039  TIP3      H1             39.1234164810       37.5137367438       35.1577318360  SOLV      3076            0.0000000000
      9199      3039  TIP3      H2             40.4024464810       38.3084967438       35.0017718360  SOLV      3076            0.0000000000
      9200      3040  TIP3      OH2            41.4626764810       37.6299167438       36.2509718360  SOLV      3077            0.0000000000
      9201      3040  TIP3      H1             42.3610364810       37.3559367438       36.0663118360  SOLV      3077            0.0000000000
      9202      3040  TIP3      H2             41.0759864810       36.8875167438       36.7152318360  SOLV      3077            0.0000000000
      9203      3041  TIP3      OH2            11.6100564810        9.9215167438       43.6563918360  SOLV      3078            0.0000000000
      9204      3041  TIP3      H1             11.6991664810       10.8653367438       43.5241018360  SOLV      3078            0.0000000000
      9205      3041  TIP3      H2             10.9718164810        9.6461567438       42.9983318360  SOLV      3078            0.0000000000
      9206      3042  TIP3      OH2            10.5431864810        9.1765867438       47.0752118360  SOLV      3079            0.0000000000
      9207      3042  TIP3      H1             10.5049364810        8.5302167438       47.7801718360  SOLV      3079            0.0000000000
      9208      3042  TIP3      H2             10.2208364810        8.7100267438       46.3040818360  SOLV      3079            0.0000000000
      9209      3043  TIP3      OH2             2.9116864810        8.7907967438       48.6682018360  SOLV      3080            0.0000000000
      9210      3043  TIP3      H1              2.9528964810        8.1651267438       49.3914418360  SOLV      3080            0.0000000000
      9211      3043  TIP3      H2              3.6144564810        9.4146567438       48.8502418360  SOLV      3080            0.0000000000
      9212      3044  TIP3      OH2            14.2492064810       12.1156267438       45.3767218360  SOLV      3081            0.0000000000
      9213      3044  TIP3      H1             13.8084764810       11.3952267438       45.8272818360  SOLV      3081            0.0000000000
      9214      3044  TIP3      H2             14.2361764810       12.8363467438       46.0064918360  SOLV      3081            0.0000000000
      9215      3045  TIP3      OH2             3.8349964810       13.2406867438       47.2031118360  SOLV      3082            0.0000000000
      9216      3045  TIP3      H1              3.4655164810       12.4387367438       46.8335418360  SOLV      3082            0.0000000000
      9217      3045  TIP3      H2              4.7761064810       13.0721767438       47.2494518360  SOLV      3082            0.0000000000
      9218      3046  TIP3      OH2             0.4450464810        6.9009467438       42.5959918360  SOLV      3083            0.0000000000
      9219      3046  TIP3      H1             -0.0026135190        7.7468167438       42.5776418360  SOLV      3083            0.0000000000
      9220      3046  TIP3      H2             -0.1158335190        6.3213667438       42.0805018360  SOLV      3083            0.0000000000
      9221      3047  TIP3      OH2             1.1556564810        9.0629067438       44.7217918360  SOLV      3084            0.0000000000
      9222      3047  TIP3      H1              1.3690064810        8.2930667438       45.2490918360  SOLV      3084            0.0000000000
      9223      3047  TIP3      H2              1.8934164810        9.1525767438       44.1185518360  SOLV      3084            0.0000000000
      9224      3048  TIP3      OH2            11.3607564810       17.2197967438       45.5887618360  SOLV      3085            0.0000000000
      9225      3048  TIP3      H1             11.9803964810       16.5432667438       45.3156818360  SOLV      3085            0.0000000000
      9226      3048  TIP3      H2             11.1524964810       17.0018767438       46.4972518360  SOLV      3085            0.0000000000
      9227      3049  TIP3      OH2             8.9326264810       11.6087267438       47.4813118360  SOLV      3086            0.0000000000
      9228      3049  TIP3      H1              9.2364164810       10.9228667438       46.8867218360  SOLV      3086            0.0000000000
      9229      3049  TIP3      H2              9.6540264810       11.7275967438       48.0991118360  SOLV      3086            0.0000000000
      9230      3050  TIP3      OH2            17.5956064810        3.2102567438       48.3419318360  SOLV      3087            0.0000000000
      9231      3050  TIP3      H1             17.6448264810        3.8203767438       49.0778418360  SOLV      3087            0.0000000000
      9232      3050  TIP3      H2             18.0211164810        3.6713467438       47.6190418360  SOLV      3087            0.0000000000
      9233      3051  TIP3      OH2            12.0733264810        6.0029667438       47.8087918360  SOLV      3088            0.0000000000
      9234      3051  TIP3      H1             12.2159164810        5.0566667438       47.8289518360  SOLV      3088            0.0000000000
      9235      3051  TIP3      H2             11.9672264810        6.2099467438       46.8802818360  SOLV      3088            0.0000000000
      9236      3052  TIP3      OH2             5.2281564810        4.1046067438       45.0812718360  SOLV      3089            0.0000000000
      9237      3052  TIP3      H1              5.2712664810        4.9644567438       44.6629018360  SOLV      3089            0.0000000000
      9238      3052  TIP3      H2              4.7705664810        3.5520767438       44.4475918360  SOLV      3089            0.0000000000
      9239      3053  TIP3      OH2            12.9504264810        4.2351667438       43.4821018360  SOLV      3090            0.0000000000
      9240      3053  TIP3      H1             13.5968564810        3.9064867438       44.1068618360  SOLV      3090            0.0000000000
      9241      3053  TIP3      H2             13.4603664810        4.7530667438       42.8592418360  SOLV      3090            0.0000000000
      9242      3054  TIP3      OH2             1.8483064810        6.5011867438       45.8434118360  SOLV      3091            0.0000000000
      9243      3054  TIP3      H1              2.5019664810        5.9513567438       46.2754218360  SOLV      3091            0.0000000000
      9244      3054  TIP3      H2              1.8722364810        6.2270867438       44.9266118360  SOLV      3091            0.0000000000
      9245      3055  TIP3      OH2             7.0047564810        8.0513167438       45.0585618360  SOLV      3092            0.0000000000
      9246      3055  TIP3      H1              7.6208564810        7.5248567438       45.5679618360  SOLV      3092            0.0000000000
      9247      3055  TIP3      H2              6.4186364810        7.4111867438       44.6549218360  SOLV      3092            0.0000000000
      9248      3056  TIP3      OH2             4.0383464810        3.0224467438       49.1553518360  SOLV      3093            0.0000000000
      9249      3056  TIP3      H1              3.8195164810        3.5525067438       48.3889518360  SOLV      3093            0.0000000000
      9250      3056  TIP3      H2              3.3704364810        3.2489967438       49.8024918360  SOLV      3093            0.0000000000
      9251      3057  TIP3      OH2            11.4073264810       12.5225567438       42.6992618360  SOLV      3094            0.0000000000
      9252      3057  TIP3      H1             11.1118364810       12.1997867438       41.8479518360  SOLV      3094            0.0000000000
      9253      3057  TIP3      H2             11.0831064810       13.4222267438       42.7405218360  SOLV      3094            0.0000000000
      9254      3058  TIP3      OH2             6.6074864810       10.6980167438       49.4427218360  SOLV      3095            0.0000000000
      9255      3058  TIP3      H1              5.8673964810       11.2961667438       49.5462418360  SOLV      3095            0.0000000000
      9256      3058  TIP3      H2              7.3214364810       11.2519767438       49.1270818360  SOLV      3095            0.0000000000
      9257      3059  TIP3      OH2            14.7142664810        3.5260967438       45.4626918360  SOLV      3096            0.0000000000
      9258      3059  TIP3      H1             14.4990664810        2.7604367438       45.9952918360  SOLV      3096            0.0000000000
      9259      3059  TIP3      H2             15.3700064810        3.9985567438       45.9755418360  SOLV      3096            0.0000000000
      9260      3060  TIP3      OH2             3.6320764810        4.9146267438       47.1075718360  SOLV      3097            0.0000000000
      9261      3060  TIP3      H1              4.2457064810        5.5473867438       47.4808118360  SOLV      3097            0.0000000000
      9262      3060  TIP3      H2              4.1441464810        4.4421267438       46.4512618360  SOLV      3097            0.0000000000
      9263      3061  TIP3      OH2             1.1360064810       12.3331067438       41.0118018360  SOLV      3098            0.0000000000
      9264      3061  TIP3      H1              0.8640964810       12.5622067438       40.1230918360  SOLV      3098            0.0000000000
      9265      3061  TIP3      H2              1.1815764810       13.1709867438       41.4723318360  SOLV      3098            0.0000000000
      9266      3062  TIP3      OH2            14.7609764810       13.9546967438       47.7246518360  SOLV      3099            0.0000000000
      9267      3062  TIP3      H1             13.8193464810       14.0130867438       47.8863418360  SOLV      3099            0.0000000000
      9268      3062  TIP3      H2             15.0375864810       14.8607467438       47.5876218360  SOLV      3099            0.0000000000
      9269      3063  TIP3      OH2            15.0616764810        2.2412267438       49.1420418360  SOLV      3100            0.0000000000
      9270      3063  TIP3      H1             14.3255964810        2.8519367438       49.1041718360  SOLV      3100            0.0000000000
      9271      3063  TIP3      H2             15.7450764810        2.6561267438       48.6156818360  SOLV      3100            0.0000000000
      9272      3064  TIP3      OH2             8.0648164810        0.3279567438       46.6078418360  SOLV      3101            0.0000000000
      9273      3064  TIP3      H1              7.9472364810       -0.6204432562       46.5536718360  SOLV      3101            0.0000000000
      9274      3064  TIP3      H2              7.2098264810        0.6605667438       46.8809518360  SOLV      3101            0.0000000000
      9275      3065  TIP3      OH2            13.0130964810       15.7360467438       44.3498118360  SOLV      3102            0.0000000000
      9276      3065  TIP3      H1             13.4383264810       15.0288367438       43.8647718360  SOLV      3102            0.0000000000
      9277      3065  TIP3      H2             13.3300964810       16.5373167438       43.9330318360  SOLV      3102            0.0000000000
      9278      3066  TIP3      OH2            14.1727464810       13.6368967438       42.8584718360  SOLV      3103            0.0000000000
      9279      3066  TIP3      H1             13.9152264810       12.9469067438       42.2470618360  SOLV      3103            0.0000000000
      9280      3066  TIP3      H2             14.2438264810       13.1940167438       43.7040618360  SOLV      3103            0.0000000000
      9281      3067  TIP3      OH2            10.3313064810        9.1655167438       41.1084218360  SOLV      3104            0.0000000000
      9282      3067  TIP3      H1              9.6198564810        9.7004867438       40.7564718360  SOLV      3104            0.0000000000
      9283      3067  TIP3      H2             11.0222664810        9.2207267438       40.4483118360  SOLV      3104            0.0000000000
      9284      3068  TIP3      OH2            10.3852264810        7.6229467438       38.1469218360  SOLV      3105            0.0000000000
      9285      3068  TIP3      H1             11.0862164810        7.6456367438       38.7983218360  SOLV      3105            0.0000000000
      9286      3068  TIP3      H2             10.6875164810        6.9949167438       37.4908518360  SOLV      3105            0.0000000000
      9287      3069  TIP3      OH2            17.7006964810        8.5433667438       49.4018618360  SOLV      3106            0.0000000000
      9288      3069  TIP3      H1             17.0481064810        9.2379267438       49.4909518360  SOLV      3106            0.0000000000
      9289      3069  TIP3      H2             18.1657264810        8.7534567438       48.5920218360  SOLV      3106            0.0000000000
      9290      3070  TIP3      OH2            13.7370764810        9.3748467438       42.0600118360  SOLV      3107            0.0000000000
      9291      3070  TIP3      H1             13.0051764810        9.6032167438       42.6330718360  SOLV      3107            0.0000000000
      9292      3070  TIP3      H2             14.1842964810        8.6611167438       42.5147618360  SOLV      3107            0.0000000000
      9293      3071  TIP3      OH2             5.3824464810       10.0054667438       43.9425118360  SOLV      3108            0.0000000000
      9294      3071  TIP3      H1              5.0519664810        9.6348067438       43.1242118360  SOLV      3108            0.0000000000
      9295      3071  TIP3      H2              5.9708564810        9.3348667438       44.2893418360  SOLV      3108            0.0000000000
      9296      3072  TIP3      OH2             6.7491964810       13.4335267438       46.6237318360  SOLV      3109            0.0000000000
      9297      3072  TIP3      H1              6.6543264810       12.8548367438       45.8671918360  SOLV      3109            0.0000000000
      9298      3072  TIP3      H2              7.4785564810       13.0620967438       47.1200118360  SOLV      3109            0.0000000000
      9299      3073  TIP3      OH2             5.7489964810        8.7740267438       47.5760118360  SOLV      3110            0.0000000000
      9300      3073  TIP3      H1              6.3142464810        8.8954467438       46.8131318360  SOLV      3110            0.0000000000
      9301      3073  TIP3      H2              6.0678864810        9.4115267438       48.2148618360  SOLV      3110            0.0000000000
      9302      3074  TIP3      OH2            12.0582164810       14.2772167438       48.3100618360  SOLV      3111            0.0000000000
      9303      3074  TIP3      H1             11.8178764810       14.9395267438       48.9579818360  SOLV      3111            0.0000000000
      9304      3074  TIP3      H2             11.8600364810       13.4427367438       48.7350218360  SOLV      3111            0.0000000000
      9305      3075  TIP3      OH2            12.6080264810        8.5371367438       39.7451318360  SOLV      3112            0.0000000000
      9306      3075  TIP3      H1             13.1875764810        8.6871667438       40.4920218360  SOLV      3112            0.0000000000
      9307      3075  TIP3      H2             13.0220264810        9.0078767438       39.0217718360  SOLV      3112            0.0000000000
      9308      3076  TIP3      OH2            10.3345164810       15.2739867438       43.1804418360  SOLV      3113            0.0000000000
      9309      3076  TIP3      H1             10.8082764810       15.5696167438       43.9578618360  SOLV      3113            0.0000000000
      9310      3076  TIP3      H2              9.7714464810       16.0121467438       42.9474018360  SOLV      3113            0.0000000000
      9311      3077  TIP3      OH2            16.3068664810        0.2871767438       39.5581018360  SOLV      3114            0.0000000000
      9312      3077  TIP3      H1             15.4069364810        0.4260767438       39.8531618360  SOLV      3114            0.0000000000
      9313      3077  TIP3      H2             16.5587064810        1.1186367438       39.1562718360  SOLV      3114            0.0000000000
      9314      3078  TIP3      OH2             4.3727164810        9.0748967438       41.5317918360  SOLV      3115            0.0000000000
      9315      3078  TIP3      H1              4.0808464810        9.8430667438       41.0409218360  SOLV      3115            0.0000000000
      9316      3078  TIP3      H2              3.6982364810        8.4155167438       41.3689318360  SOLV      3115            0.0000000000
      9317      3079  TIP3      OH2            17.4960064810       14.6534167438       37.9344918360  SOLV      3116            0.0000000000
      9318      3079  TIP3      H1             17.5693564810       15.5924367438       38.1050218360  SOLV      3116            0.0000000000
      9319      3079  TIP3      H2             18.4015164810       14.3482767438       37.8782218360  SOLV      3116            0.0000000000
      9320      3080  TIP3      OH2             0.2159964810       14.2181967438       47.2307918360  SOLV      3117            0.0000000000
      9321      3080  TIP3      H1              1.1620564810       14.0738967438       47.2117418360  SOLV      3117            0.0000000000
      9322      3080  TIP3      H2              0.1036264810       15.0024767438       47.7679118360  SOLV      3117            0.0000000000
      9323      3081  TIP3      OH2             9.8068264810       18.2304567438       41.5953618360  SOLV      3118            0.0000000000
      9324      3081  TIP3      H1              9.7314264810       18.1091767438       40.6488818360  SOLV      3118            0.0000000000
      9325      3081  TIP3      H2              9.8396964810       19.1797267438       41.7138218360  SOLV      3118            0.0000000000
      9326      3082  TIP3      OH2             3.4602064810       17.0191567438       43.3762618360  SOLV      3119            0.0000000000
      9327      3082  TIP3      H1              3.6122464810       16.6711967438       44.2549118360  SOLV      3119            0.0000000000
      9328      3082  TIP3      H2              2.6092464810       16.6628867438       43.1209818360  SOLV      3119            0.0000000000
      9329      3083  TIP3      OH2            12.9084264810       17.3844767438       38.5976018360  SOLV      3120            0.0000000000
      9330      3083  TIP3      H1             13.2832664810       16.6400867438       38.1268618360  SOLV      3120            0.0000000000
      9331      3083  TIP3      H2             12.9127964810       17.1145367438       39.5159318360  SOLV      3120            0.0000000000
      9332      3084  TIP3      OH2            12.5772364810       17.3101867438       41.3468218360  SOLV      3121            0.0000000000
      9333      3084  TIP3      H1             11.6422164810       17.4103767438       41.5255218360  SOLV      3121            0.0000000000
      9334      3084  TIP3      H2             12.8574264810       16.6007867438       41.9251418360  SOLV      3121            0.0000000000
      9335      3085  TIP3      OH2             5.3335764810        1.2314067438       47.3854718360  SOLV      3122            0.0000000000
      9336      3085  TIP3      H1              4.4719464810        1.1442267438       46.9777618360  SOLV      3122            0.0000000000
      9337      3085  TIP3      H2              5.3111464810        2.0874167438       47.8132318360  SOLV      3122            0.0000000000
      9338      3086  TIP3      OH2            14.0853364810        9.5699667438       37.3749218360  SOLV      3123            0.0000000000
      9339      3086  TIP3      H1             14.1274164810        9.3473567438       36.4449218360  SOLV      3123            0.0000000000
      9340      3086  TIP3      H2             14.9345464810        9.9686767438       37.5649118360  SOLV      3123            0.0000000000
      9341      3087  TIP3      OH2             9.6580864810        3.4457867438       38.0452518360  SOLV      3124            0.0000000000
      9342      3087  TIP3      H1              9.4045664810        3.4649467438       38.9680618360  SOLV      3124            0.0000000000
      9343      3087  TIP3      H2              9.4012964810        2.5743267438       37.7438718360  SOLV      3124            0.0000000000
      9344      3088  TIP3      OH2             5.4245864810        6.1968567438       48.4804918360  SOLV      3125            0.0000000000
      9345      3088  TIP3      H1              4.7827964810        6.1565867438       49.1895018360  SOLV      3125            0.0000000000
      9346      3088  TIP3      H2              5.4617864810        7.1233267438       48.2427918360  SOLV      3125            0.0000000000
      9347      3089  TIP3      OH2             5.4214964810        6.4178667438       43.3924918360  SOLV      3126            0.0000000000
      9348      3089  TIP3      H1              4.5287864810        6.0774767438       43.3338718360  SOLV      3126            0.0000000000
      9349      3089  TIP3      H2              5.8721564810        6.0409567438       42.6368118360  SOLV      3126            0.0000000000
      9350      3090  TIP3      OH2            10.9570464810        6.8338967438       42.2095718360  SOLV      3127            0.0000000000
      9351      3090  TIP3      H1             10.5480764810        7.6487567438       41.9180518360  SOLV      3127            0.0000000000
      9352      3090  TIP3      H2             11.6776664810        6.6939067438       41.5952818360  SOLV      3127            0.0000000000
      9353      3091  TIP3      OH2            11.9618164810        6.2799367438       45.0235418360  SOLV      3128            0.0000000000
      9354      3091  TIP3      H1             11.7662664810        6.8856167438       44.3086018360  SOLV      3128            0.0000000000
      9355      3091  TIP3      H2             12.1430764810        5.4464567438       44.5891718360  SOLV      3128            0.0000000000
      9356      3092  TIP3      OH2             6.5403764810        3.8914367438       37.1462918360  SOLV      3129            0.0000000000
      9357      3092  TIP3      H1              6.1094464810        3.4464467438       37.8760318360  SOLV      3129            0.0000000000
      9358      3092  TIP3      H2              5.8222464810        4.2630667438       36.6340418360  SOLV      3129            0.0000000000
      9359      3093  TIP3      OH2            11.2257364810        7.9180667438       49.6947818360  SOLV      3132            0.0000000000
      9360      3093  TIP3      H1             11.5492164810        7.2870367438       49.0518318360  SOLV      3132            0.0000000000
      9361      3093  TIP3      H2             10.7856664810        7.3832867438       50.3555218360  SOLV      3132            0.0000000000
      9362      3094  TIP3      OH2             8.0030264810        3.8456167438       44.4789018360  SOLV      3133            0.0000000000
      9363      3094  TIP3      H1              7.0921364810        3.9022967438       44.7675018360  SOLV      3133            0.0000000000
      9364      3094  TIP3      H2              8.5083164810        3.7851667438       45.2896218360  SOLV      3133            0.0000000000
      9365      3095  TIP3      OH2             2.8313664810        5.4742467438       43.3056618360  SOLV      3134            0.0000000000
      9366      3095  TIP3      H1              1.9421664810        5.5737967438       42.9656218360  SOLV      3134            0.0000000000
      9367      3095  TIP3      H2              3.1278564810        4.6325467438       42.9594518360  SOLV      3134            0.0000000000
      9368      3096  TIP3      OH2             6.4845464810        5.4745067438       40.9621218360  SOLV      3135            0.0000000000
      9369      3096  TIP3      H1              7.4160964810        5.6035067438       41.1404318360  SOLV      3135            0.0000000000
      9370      3096  TIP3      H2              6.2695764810        6.1439367438       40.3125918360  SOLV      3135            0.0000000000
      9371      3097  TIP3      OH2            12.4082164810        3.0802467438       47.7430818360  SOLV      3136            0.0000000000
      9372      3097  TIP3      H1             11.7313764810        3.2115567438       48.4070518360  SOLV      3136            0.0000000000
      9373      3097  TIP3      H2             11.9227064810        2.9251967438       46.9328518360  SOLV      3136            0.0000000000
      9374      3098  TIP3      OH2             5.1585664810        6.6687267438       38.5287318360  SOLV      3137            0.0000000000
      9375      3098  TIP3      H1              4.6160764810        6.2891067438       37.8374918360  SOLV      3137            0.0000000000
      9376      3098  TIP3      H2              5.9920564810        6.8631967438       38.1001418360  SOLV      3137            0.0000000000
      9377      3099  TIP3      OH2             9.3229964810        6.6329167438       46.3658618360  SOLV      3138            0.0000000000
      9378      3099  TIP3      H1              9.8873364810        6.0865767438       45.8188218360  SOLV      3138            0.0000000000
      9379      3099  TIP3      H2              9.1753364810        6.1111067438       47.1546218360  SOLV      3138            0.0000000000
      9380      3100  TIP3      OH2             7.9495864810        5.0215267438       48.7799018360  SOLV      3140            0.0000000000
      9381      3100  TIP3      H1              7.1141164810        5.4754767438       48.8901418360  SOLV      3140            0.0000000000
      9382      3100  TIP3      H2              8.4736464810        5.2973767438       49.5318918360  SOLV      3140            0.0000000000
      9383      3101  TIP3      OH2             8.4938464810       11.2342967438       40.4645418360  SOLV      3141            0.0000000000
      9384      3101  TIP3      H1              7.7489464810       10.7268267438       40.1423318360  SOLV      3141            0.0000000000
      9385      3101  TIP3      H2              8.3595664810       11.2830967438       41.4110218360  SOLV      3141            0.0000000000
      9386      3102  TIP3      OH2            15.6437364810       10.3671167438       49.2513018360  SOLV      3142            0.0000000000
      9387      3102  TIP3      H1             16.2856164810       10.8237467438       48.7075218360  SOLV      3142            0.0000000000
      9388      3102  TIP3      H2             14.8134264810       10.4803567438       48.7887118360  SOLV      3142            0.0000000000
      9389      3103  TIP3      OH2            12.3915264810        4.0482867438       38.6638018360  SOLV      3143            0.0000000000
      9390      3103  TIP3      H1             11.4529464810        4.1598467438       38.5126818360  SOLV      3143            0.0000000000
      9391      3103  TIP3      H2             12.6887364810        4.9049767438       38.9703718360  SOLV      3143            0.0000000000
      9392      3104  TIP3      OH2            13.1098764810        5.9155567438       40.3245418360  SOLV      3144            0.0000000000
      9393      3104  TIP3      H1             14.0017764810        5.7780567438       40.6436618360  SOLV      3144            0.0000000000
      9394      3104  TIP3      H2             13.1662364810        6.7061667438       39.7878918360  SOLV      3144            0.0000000000
      9395      3105  TIP3      OH2             3.6186764810       10.5292967438       46.2343318360  SOLV      3145            0.0000000000
      9396      3105  TIP3      H1              4.3633964810       10.5268667438       45.6329818360  SOLV      3145            0.0000000000
      9397      3105  TIP3      H2              3.6963364810        9.7056767438       46.7158418360  SOLV      3145            0.0000000000
      9398      3106  TIP3      OH2            10.6192564810       12.6927267438       39.4900018360  SOLV      3146            0.0000000000
      9399      3106  TIP3      H1             10.3240964810       13.5195167438       39.8714818360  SOLV      3146            0.0000000000
      9400      3106  TIP3      H2              9.9162564810       12.0734167438       39.6861418360  SOLV      3146            0.0000000000
      9401      3107  TIP3      OH2            17.9947464810        6.1249667438       40.0192118360  SOLV      3147            0.0000000000
      9402      3107  TIP3      H1             17.4403764810        5.7287667438       39.3469618360  SOLV      3147            0.0000000000
      9403      3107  TIP3      H2             18.0951064810        7.0354867438       39.7415418360  SOLV      3147            0.0000000000
      9404      3108  TIP3      OH2            16.2899164810       14.9110067438       40.4844218360  SOLV      3148            0.0000000000
      9405      3108  TIP3      H1             15.9170264810       14.0853867438       40.7934818360  SOLV      3148            0.0000000000
      9406      3108  TIP3      H2             16.5672664810       14.7279467438       39.5867618360  SOLV      3148            0.0000000000
      9407      3109  TIP3      OH2            13.4503064810        9.7189567438       47.5056118360  SOLV      3149            0.0000000000
      9408      3109  TIP3      H1             12.5219964810        9.4871467438       47.4785418360  SOLV      3149            0.0000000000
      9409      3109  TIP3      H2             13.9014164810        8.9419367438       47.1754918360  SOLV      3149            0.0000000000
      9410      3110  TIP3      OH2             5.9936164810       14.0471167438       43.6384818360  SOLV      3150            0.0000000000
      9411      3110  TIP3      H1              6.5208364810       14.8205567438       43.4383618360  SOLV      3150            0.0000000000
      9412      3110  TIP3      H2              5.1134664810       14.2720367438       43.3368818360  SOLV      3150            0.0000000000
      9413      3111  TIP3      OH2             1.7483864810        8.9095267438       38.2257218360  SOLV      3151            0.0000000000
      9414      3111  TIP3      H1              2.3643764810        9.5362467438       38.6052018360  SOLV      3151            0.0000000000
      9415      3111  TIP3      H2              0.8866464810        9.2255067438       38.4973718360  SOLV      3151            0.0000000000
      9416      3112  TIP3      OH2             7.4208464810       11.7101067438       43.2149118360  SOLV      3152            0.0000000000
      9417      3112  TIP3      H1              7.1798464810       12.6355467438       43.2564418360  SOLV      3152            0.0000000000
      9418      3112  TIP3      H2              6.6802064810       11.2512367438       43.6113018360  SOLV      3152            0.0000000000
      9419      3113  TIP3      OH2             7.9355064810       15.8594667438       49.5300218360  SOLV      3153            0.0000000000
      9420      3113  TIP3      H1              8.2979764810       16.7140267438       49.2964618360  SOLV      3153            0.0000000000
      9421      3113  TIP3      H2              8.4670264810       15.5676267438       50.2706518360  SOLV      3153            0.0000000000
      9422      3114  TIP3      OH2             6.1039264810       16.7318667438       42.7601318360  SOLV      3154            0.0000000000
      9423      3114  TIP3      H1              5.1539764810       16.8376067438       42.8114618360  SOLV      3154            0.0000000000
      9424      3114  TIP3      H2              6.4557364810       17.5526067438       43.1048818360  SOLV      3154            0.0000000000
      9425      3115  TIP3      OH2            11.4795864810       11.9585367438       49.2305818360  SOLV      3155            0.0000000000
      9426      3115  TIP3      H1             11.0537164810       11.7307067438       50.0569818360  SOLV      3155            0.0000000000
      9427      3115  TIP3      H2             12.0601664810       11.2197167438       49.0481118360  SOLV      3155            0.0000000000
      9428      3116  TIP3      OH2            13.6824764810       12.8875867438       38.3044818360  SOLV      3156            0.0000000000
      9429      3116  TIP3      H1             14.0357864810       12.5075667438       39.1088318360  SOLV      3156            0.0000000000
      9430      3116  TIP3      H2             12.7338264810       12.7940667438       38.3914118360  SOLV      3156            0.0000000000
      9431      3117  TIP3      OH2            18.1859164810       17.3668367438       38.5055018360  SOLV      3157            0.0000000000
      9432      3117  TIP3      H1             18.9297064810       17.9528867438       38.3656618360  SOLV      3157            0.0000000000
      9433      3117  TIP3      H2             17.4917264810       17.9354167438       38.8387418360  SOLV      3157            0.0000000000
      9434      3118  TIP3      OH2            14.5484064810       11.5597867438       40.5312718360  SOLV      3158            0.0000000000
      9435      3118  TIP3      H1             14.2711664810       10.8317167438       41.0873818360  SOLV      3158            0.0000000000
      9436      3118  TIP3      H2             15.4757064810       11.6789867438       40.7365318360  SOLV      3158            0.0000000000
      9437      3119  TIP3      OH2             1.9117964810       15.5476967438       49.5422618360  SOLV      3159            0.0000000000
      9438      3119  TIP3      H1              2.1288264810       14.6159367438       49.5112318360  SOLV      3159            0.0000000000
      9439      3119  TIP3      H2              2.1581464810       15.8221967438       50.4255418360  SOLV      3159            0.0000000000
      9440      3120  TIP3      OH2             7.7732564810       13.9991967438       36.7514818360  SOLV      3160            0.0000000000
      9441      3120  TIP3      H1              8.0122364810       13.2510067438       36.2043718360  SOLV      3160            0.0000000000
      9442      3120  TIP3      H2              7.5043864810       13.6113667438       37.5842618360  SOLV      3160            0.0000000000
      9443      3121  TIP3      OH2             6.7103164810       13.5695767438       39.2077418360  SOLV      3161            0.0000000000
      9444      3121  TIP3      H1              6.8571164810       13.0495567438       39.9978318360  SOLV      3161            0.0000000000
      9445      3121  TIP3      H2              6.7074864810       14.4763367438       39.5143318360  SOLV      3161            0.0000000000
      9446      3122  TIP3      OH2             3.1634264810       10.8219067438       39.7182818360  SOLV      3162            0.0000000000
      9447      3122  TIP3      H1              2.4773564810       11.1741567438       40.2852518360  SOLV      3162            0.0000000000
      9448      3122  TIP3      H2              3.6862164810       11.5848667438       39.4717118360  SOLV      3162            0.0000000000
      9449      3123  TIP3      OH2            11.7794264810        3.1364567438       41.0944118360  SOLV      3163            0.0000000000
      9450      3123  TIP3      H1             11.9992564810        3.6079967438       40.2909518360  SOLV      3163            0.0000000000
      9451      3123  TIP3      H2             12.3378264810        3.5307167438       41.7644718360  SOLV      3163            0.0000000000
      9452      3124  TIP3      OH2             9.4480364810       15.2669367438       39.9571618360  SOLV      3164            0.0000000000
      9453      3124  TIP3      H1              8.6316464810       15.7639067438       40.0095918360  SOLV      3164            0.0000000000
      9454      3124  TIP3      H2              9.9776664810       15.7422867438       39.3170418360  SOLV      3164            0.0000000000
      9455      3125  TIP3      OH2             8.9794164810        4.8643367438       41.9292518360  SOLV      3165            0.0000000000
      9456      3125  TIP3      H1              9.7916764810        5.3686567438       41.9754218360  SOLV      3165            0.0000000000
      9457      3125  TIP3      H2              8.7347164810        4.7193067438       42.8432118360  SOLV      3165            0.0000000000
      9458      3126  TIP3      OH2             9.8630864810        1.9456367438       42.8673618360  SOLV      3166            0.0000000000
      9459      3126  TIP3      H1              9.5164364810        2.5626967438       43.5117918360  SOLV      3166            0.0000000000
      9460      3126  TIP3      H2             10.5217764810        2.4462067438       42.3859118360  SOLV      3166            0.0000000000
      9461      3127  TIP3      OH2             6.7863464810       16.3106567438       39.9388518360  SOLV      3167            0.0000000000
      9462      3127  TIP3      H1              6.9472164810       17.1104067438       39.4381118360  SOLV      3167            0.0000000000
      9463      3127  TIP3      H2              6.5891264810       16.6172567438       40.8239118360  SOLV      3167            0.0000000000
      9464      3128  TIP3      OH2             5.5207864810        3.0085767438       39.5546118360  SOLV      3168            0.0000000000
      9465      3128  TIP3      H1              5.4372664810        3.8968867438       39.9012518360  SOLV      3168            0.0000000000
      9466      3128  TIP3      H2              6.4108164810        2.7432467438       39.7862918360  SOLV      3168            0.0000000000
      9467      3129  TIP3      OH2            14.3217364810        7.5077367438       46.0446118360  SOLV      3169            0.0000000000
      9468      3129  TIP3      H1             13.5241764810        7.0927567438       45.7161118360  SOLV      3169            0.0000000000
      9469      3129  TIP3      H2             14.7668464810        6.8171067438       46.5356618360  SOLV      3169            0.0000000000
      9470      3130  TIP3      OH2             3.7793164810       13.4357967438       38.6150618360  SOLV      3170            0.0000000000
      9471      3130  TIP3      H1              4.3714664810       14.1352767438       38.8913018360  SOLV      3170            0.0000000000
      9472      3130  TIP3      H2              4.2386164810       13.0027467438       37.8955218360  SOLV      3170            0.0000000000
      9473      3131  TIP3      OH2             2.0952364810        6.1000967438       37.7310018360  SOLV      3171            0.0000000000
      9474      3131  TIP3      H1              2.0504964810        7.0394067438       37.9097018360  SOLV      3171            0.0000000000
      9475      3131  TIP3      H2              1.2075564810        5.8645867438       37.4612118360  SOLV      3171            0.0000000000
      9476      3132  TIP3      OH2            15.4081964810       16.7639867438       47.6669618360  SOLV      3172            0.0000000000
      9477      3132  TIP3      H1             15.2526264810       17.4424267438       47.0098918360  SOLV      3172            0.0000000000
      9478      3132  TIP3      H2             16.3408364810       16.8359167438       47.8700218360  SOLV      3172            0.0000000000
      9479      3133  TIP3      OH2             1.8337664810       14.8224667438       42.5646818360  SOLV      3174            0.0000000000
      9480      3133  TIP3      H1              1.0016264810       15.2947367438       42.5918218360  SOLV      3174            0.0000000000
      9481      3133  TIP3      H2              2.3795964810       15.3322267438       41.9659918360  SOLV      3174            0.0000000000
      9482      3134  TIP3      OH2             9.8114364810       15.8623367438       36.8900818360  SOLV      3175            0.0000000000
      9483      3134  TIP3      H1              9.1675364810       15.2311967438       37.2114518360  SOLV      3175            0.0000000000
      9484      3134  TIP3      H2             10.5732664810       15.3311367438       36.6584318360  SOLV      3175            0.0000000000
      9485      3135  TIP3      OH2            14.4157264810       15.6793267438       37.1238818360  SOLV      3176            0.0000000000
      9486      3135  TIP3      H1             14.6987664810       14.8848467438       37.5765718360  SOLV      3176            0.0000000000
      9487      3135  TIP3      H2             15.1555164810       15.9124267438       36.5629918360  SOLV      3176            0.0000000000
      9488      3136  TIP3      OH2             5.3704564810       11.5888167438       36.9813718360  SOLV      3177            0.0000000000
      9489      3136  TIP3      H1              5.4348664810       10.7947767438       37.5120118360  SOLV      3177            0.0000000000
      9490      3136  TIP3      H2              6.0233764810       11.4700967438       36.2915718360  SOLV      3177            0.0000000000
      9491      3137  TIP3      OH2            10.7227964810       12.6359867438       36.7171718360  SOLV      3178            0.0000000000
      9492      3137  TIP3      H1             10.4542064810       12.8161967438       37.6180618360  SOLV      3178            0.0000000000
      9493      3137  TIP3      H2             10.5163564810       11.7106067438       36.5857518360  SOLV      3178            0.0000000000
      9494      3138  TIP3      OH2             6.5198364810        9.5614367438       39.2871718360  SOLV      3179            0.0000000000
      9495      3138  TIP3      H1              6.0600364810        9.0772667438       39.9730218360  SOLV      3179            0.0000000000
      9496      3138  TIP3      H2              6.7747064810        8.8929767438       38.6512218360  SOLV      3179            0.0000000000
      9497      3139  TIP3      OH2             7.5908764810        7.8046167438       37.5494918360  SOLV      3180            0.0000000000
      9498      3139  TIP3      H1              7.4103764810        7.6497367438       36.6223218360  SOLV      3180            0.0000000000
      9499      3139  TIP3      H2              8.5409264810        7.9124867438       37.5942818360  SOLV      3180            0.0000000000
      9500      3140  TIP3      OH2            16.9807064810       10.1590367438       36.9953018360  SOLV      3181            0.0000000000
      9501      3140  TIP3      H1             16.7071864810        9.7345867438       36.1821318360  SOLV      3181            0.0000000000
      9502      3140  TIP3      H2             17.0201164810       11.0904867438       36.7783418360  SOLV      3181            0.0000000000
      9503      3141  TIP3      OH2             7.4880464810       18.4949867438       38.5508518360  SOLV      3182            0.0000000000
      9504      3141  TIP3      H1              8.4211164810       18.6528567438       38.6946918360  SOLV      3182            0.0000000000
      9505      3141  TIP3      H2              7.2239264810       19.1702867438       37.9260018360  SOLV      3182            0.0000000000
      9506      3142  TIP3      OH2             1.0565364810       13.1313667438       38.0336618360  SOLV      3183            0.0000000000
      9507      3142  TIP3      H1              1.9704564810       13.2102567438       38.3070518360  SOLV      3183            0.0000000000
      9508      3142  TIP3      H2              1.0638464810       12.4443267438       37.3672218360  SOLV      3183            0.0000000000
      9509      3143  TIP3      OH2             0.5755164810       16.6049167438       44.9156718360  SOLV      3184            0.0000000000
      9510      3143  TIP3      H1              0.2411964810       15.7246467438       45.0876918360  SOLV      3184            0.0000000000
      9511      3143  TIP3      H2              0.7977564810       16.9504167438       45.7802318360  SOLV      3184            0.0000000000
      9512      3144  TIP3      OH2            18.1239964810       17.4145567438       47.8961518360  SOLV      3185            0.0000000000
      9513      3144  TIP3      H1             18.1026664810       17.5993967438       48.8350918360  SOLV      3185            0.0000000000
      9514      3144  TIP3      H2             18.8146164810       17.9829567438       47.5552918360  SOLV      3185            0.0000000000
      9515      3145  TIP3      OH2            17.4389864810       11.0278467438       40.9703418360  SOLV      3186            0.0000000000
      9516      3145  TIP3      H1             18.2891264810       11.4489367438       41.0975018360  SOLV      3186            0.0000000000
      9517      3145  TIP3      H2             17.4444964810       10.2878567438       41.5774818360  SOLV      3186            0.0000000000
      9518      3146  TIP3      OH2            17.8335464810        9.0815867438       42.7939118360  SOLV      3187            0.0000000000
      9519      3146  TIP3      H1             17.1070064810        8.6018467438       43.1916718360  SOLV      3187            0.0000000000
      9520      3146  TIP3      H2             18.4148764810        9.2870567438       43.5260718360  SOLV      3187            0.0000000000
      9521      3147  TIP3      OH2            17.5926664810       11.8663367438       47.7416718360  SOLV      3188            0.0000000000
      9522      3147  TIP3      H1             18.4260864810       11.4883367438       47.4610318360  SOLV      3188            0.0000000000
      9523      3147  TIP3      H2             17.7046964810       12.8094567438       47.6225818360  SOLV      3188            0.0000000000
      9524      3148  TIP3      OH2            18.1018564810        8.9824367438       39.1850418360  SOLV      3189            0.0000000000
      9525      3148  TIP3      H1             17.5799664810        9.3388467438       38.4661318360  SOLV      3189            0.0000000000
      9526      3148  TIP3      H2             18.0687764810        9.6572167438       39.8631318360  SOLV      3189            0.0000000000
      9527      3149  TIP3      OH2            16.4507564810        6.2219967438       37.7357518360  SOLV      3190            0.0000000000
      9528      3149  TIP3      H1             16.5471964810        6.8886967438       37.0557218360  SOLV      3190            0.0000000000
      9529      3149  TIP3      H2             16.3107164810        5.4066267438       37.2543018360  SOLV      3190            0.0000000000
      9530      3150  TIP3      OH2            15.6202264810        7.6022367438       43.3567818360  SOLV      3191            0.0000000000
      9531      3150  TIP3      H1             15.4701064810        6.6570967438       43.3365618360  SOLV      3191            0.0000000000
      9532      3150  TIP3      H2             15.2666764810        7.8833767438       44.2006918360  SOLV      3191            0.0000000000
      9533      3151  TIP3      OH2             0.6554664810        9.6804567438       47.3671618360  SOLV      3192            0.0000000000
      9534      3151  TIP3      H1              0.8397564810        9.5986267438       46.4314518360  SOLV      3192            0.0000000000
      9535      3151  TIP3      H2              1.5047564810        9.5561567438       47.7908018360  SOLV      3192            0.0000000000
      9536      3152  TIP3      OH2            15.6981364810        3.6299767438       36.8533018360  SOLV      3193            0.0000000000
      9537      3152  TIP3      H1             16.3087164810        3.2586567438       37.4901218360  SOLV      3193            0.0000000000
      9538      3152  TIP3      H2             14.8612864810        3.2086667438       37.0493018360  SOLV      3193            0.0000000000
      9539      3153  TIP3      OH2            15.3307064810        5.1848167438       41.8192918360  SOLV      3194            0.0000000000
      9540      3153  TIP3      H1             15.6104164810        4.2778567438       41.9434618360  SOLV      3194            0.0000000000
      9541      3153  TIP3      H2             16.0898764810        5.6189667438       41.4302118360  SOLV      3194            0.0000000000
      9542      3154  TIP3      OH2            15.9425364810        5.7665567438       47.2551818360  SOLV      3195            0.0000000000
      9543      3154  TIP3      H1             16.8753364810        5.9785467438       47.2207818360  SOLV      3195            0.0000000000
      9544      3154  TIP3      H2             15.7072864810        5.8677667438       48.1774818360  SOLV      3195            0.0000000000
      9545      3155  TIP3      OH2            15.9441864810        2.4477467438       41.8674918360  SOLV      3196            0.0000000000
      9546      3155  TIP3      H1             16.1266864810        1.9988967438       42.6929918360  SOLV      3196            0.0000000000
      9547      3155  TIP3      H2             15.3444764810        1.8631867438       41.4039518360  SOLV      3196            0.0000000000
      9548      3156  TIP3      OH2             1.4741964810        3.2631167438       46.3993318360  SOLV      3197            0.0000000000
      9549      3156  TIP3      H1              1.9193564810        2.4713667438       46.7013018360  SOLV      3197            0.0000000000
      9550      3156  TIP3      H2              1.9404964810        3.9796367438       46.8298918360  SOLV      3197            0.0000000000
      9551      3157  TIP3      OH2            -0.2217735190        6.2624167438       47.4683518360  SOLV      3198            0.0000000000
      9552      3157  TIP3      H1              0.2702064810        6.0414667438       46.6775518360  SOLV      3198            0.0000000000
      9553      3157  TIP3      H2              0.1403164810        7.1027567438       47.7493018360  SOLV      3198            0.0000000000
      9554      3158  TIP3      OH2            17.8108064810        2.5155567438       38.3955218360  SOLV      3199            0.0000000000
      9555      3158  TIP3      H1             18.2230664810        1.7941267438       37.9203218360  SOLV      3199            0.0000000000
      9556      3158  TIP3      H2             18.4924564810        3.1850167438       38.4539518360  SOLV      3199            0.0000000000
      9557      3159  TIP3      OH2            14.8625964810       17.5044967438       43.4683318360  SOLV      3200            0.0000000000
      9558      3159  TIP3      H1             15.5148864810       17.1567067438       42.8602418360  SOLV      3200            0.0000000000
      9559      3159  TIP3      H2             15.3729764810       17.9928167438       44.1143018360  SOLV      3200            0.0000000000
      9560      3160  TIP3      OH2             5.0705664810       18.2645367438       49.3470718360  SOLV      3201            0.0000000000
      9561      3160  TIP3      H1              4.2057864810       18.3363867438       49.7510818360  SOLV      3201            0.0000000000
      9562      3160  TIP3      H2              5.0154664810       18.8112667438       48.5633218360  SOLV      3201            0.0000000000
      9563      3161  TIP3      OH2             9.7811264810       18.1524267438       48.5226718360  SOLV      3202            0.0000000000
      9564      3161  TIP3      H1              9.3245264810       18.6813967438       47.8685118360  SOLV      3202            0.0000000000
      9565      3161  TIP3      H2              9.9439264810       18.7555667438       49.2479018360  SOLV      3202            0.0000000000
      9566      3162  TIP3      OH2            12.1087564810       17.0303867438       49.4677018360  SOLV      3203            0.0000000000
      9567      3162  TIP3      H1             11.2041264810       17.1954067438       49.2019118360  SOLV      3203            0.0000000000
      9568      3162  TIP3      H2             12.5376164810       17.8836067438       49.4020418360  SOLV      3203            0.0000000000
      9569      3163  TIP3      OH2            14.7129464810       18.6002967438       49.7624818360  SOLV      3204            0.0000000000
      9570      3163  TIP3      H1             14.5311464810       19.5161867438       49.5519718360  SOLV      3204            0.0000000000
      9571      3163  TIP3      H2             14.8897264810       18.1900067438       48.9159418360  SOLV      3204            0.0000000000
      9572      3164  TIP3      OH2             2.0181164810       17.2873967438       47.2275318360  SOLV      3205            0.0000000000
      9573      3164  TIP3      H1              1.9997164810       16.8619067438       48.0847618360  SOLV      3205            0.0000000000
      9574      3164  TIP3      H2              2.8229064810       16.9688967438       46.8187518360  SOLV      3205            0.0000000000
      9575      3165  TIP3      OH2             4.1594264810       15.9972667438       45.8825218360  SOLV      3206            0.0000000000
      9576      3165  TIP3      H1              3.9404964810       15.0810067438       46.0521218360  SOLV      3206            0.0000000000
      9577      3165  TIP3      H2              4.9836464810       16.1373067438       46.3486618360  SOLV      3206            0.0000000000
      9578      3166  TIP3      OH2             6.6966764810       16.4671967438       46.7313218360  SOLV      3207            0.0000000000
      9579      3166  TIP3      H1              6.9092464810       15.5790967438       46.4444118360  SOLV      3207            0.0000000000
      9580      3166  TIP3      H2              6.7611864810       16.4329667438       47.6857218360  SOLV      3207            0.0000000000
      9581      3167  TIP3      OH2            10.2050464810        2.1312567438       45.8756518360  SOLV      3208            0.0000000000
      9582      3167  TIP3      H1              9.5307264810        1.5018167438       46.1312318360  SOLV      3208            0.0000000000
      9583      3167  TIP3      H2             10.7689664810        1.6471467438       45.2724418360  SOLV      3208            0.0000000000
      9584      3168  TIP3      OH2            15.3477664810        0.2386567438       45.9883618360  SOLV      3209            0.0000000000
      9585      3168  TIP3      H1             15.9515264810        0.7861967438       45.4864618360  SOLV      3209            0.0000000000
      9586      3168  TIP3      H2             14.4779664810        0.5576967438       45.7477718360  SOLV      3209            0.0000000000
      9587      3169  TIP3      OH2            17.0748064810        1.3775267438       44.3214518360  SOLV      3210            0.0000000000
      9588      3169  TIP3      H1             17.6865564810        0.8630967438       43.7948118360  SOLV      3210            0.0000000000
      9589      3169  TIP3      H2             17.4571464810        2.2547367438       44.3448918360  SOLV      3210            0.0000000000
      9590      3170  TIP3      OH2             7.1110564810        0.6919967438       43.5109518360  SOLV      3213            0.0000000000
      9591      3170  TIP3      H1              7.9853964810        1.0804267438       43.4813818360  SOLV      3213            0.0000000000
      9592      3170  TIP3      H2              6.9751364810        0.4767767438       44.4336718360  SOLV      3213            0.0000000000
      9593      3171  TIP3      OH2            12.6678964810        0.7219767438       45.1601218360  SOLV      3214            0.0000000000
      9594      3171  TIP3      H1             12.7440564810        0.8171367438       44.2107218360  SOLV      3214            0.0000000000
      9595      3171  TIP3      H2             12.3928164810       -0.1857332562       45.2890318360  SOLV      3214            0.0000000000
      9596      3172  TIP3      OH2            14.0211564810        0.7477567438       40.8526218360  SOLV      3215            0.0000000000
      9597      3172  TIP3      H1             13.3182664810        1.3626767438       40.6427618360  SOLV      3215            0.0000000000
      9598      3172  TIP3      H2             13.5762964810       -0.0895732562       40.9837118360  SOLV      3215            0.0000000000
      9599      3173  TIP3      OH2             1.2690864810       16.5113167438       40.3987618360  SOLV      3216            0.0000000000
      9600      3173  TIP3      H1              0.5840764810       16.4732067438       39.7312718360  SOLV      3216            0.0000000000
      9601      3173  TIP3      H2              1.2728064810       17.4240767438       40.6869718360  SOLV      3216            0.0000000000
      9602      3174  TIP3      OH2             8.2550564810        2.7723967438       40.4007118360  SOLV      3218            0.0000000000
      9603      3174  TIP3      H1              8.4331864810        2.1257167438       41.0835718360  SOLV      3218            0.0000000000
      9604      3174  TIP3      H2              8.2016764810        3.6061667438       40.8678218360  SOLV      3218            0.0000000000
      9605      3175  TIP3      OH2            10.1334364810       17.7208067438       38.7963818360  SOLV      3219            0.0000000000
      9606      3175  TIP3      H1             10.9994564810       18.0875467438       38.6182018360  SOLV      3219            0.0000000000
      9607      3175  TIP3      H2              9.8867164810       17.2816067438       37.9824618360  SOLV      3219            0.0000000000
      9608      3176  TIP3      OH2            16.8423964810       17.2838367438       41.4754918360  SOLV      3220            0.0000000000
      9609      3176  TIP3      H1             16.6481064810       16.5360467438       40.9104518360  SOLV      3220            0.0000000000
      9610      3176  TIP3      H2             16.8034064810       18.0418467438       40.8922818360  SOLV      3220            0.0000000000
      9611      3177  TIP3      OH2             3.0872064810       17.4313967438       37.4239718360  SOLV      3221            0.0000000000
      9612      3177  TIP3      H1              2.8196664810       17.7176867438       38.2972818360  SOLV      3221            0.0000000000
      9613      3177  TIP3      H2              3.8584664810       16.8853167438       37.5762218360  SOLV      3221            0.0000000000
      9614      3178  TIP3      OH2            30.1100564810        9.9215167438       43.6563918360  SOLV      3222            0.0000000000
      9615      3178  TIP3      H1             30.1991664810       10.8653367438       43.5241018360  SOLV      3222            0.0000000000
      9616      3178  TIP3      H2             29.4718164810        9.6461567438       42.9983318360  SOLV      3222            0.0000000000
      9617      3179  TIP3      OH2            29.0431864810        9.1765867438       47.0752118360  SOLV      3223            0.0000000000
      9618      3179  TIP3      H1             29.0049364810        8.5302167438       47.7801718360  SOLV      3223            0.0000000000
      9619      3179  TIP3      H2             28.7208364810        8.7100267438       46.3040818360  SOLV      3223            0.0000000000
      9620      3180  TIP3      OH2            21.4116864810        8.7907967438       48.6682018360  SOLV      3224            0.0000000000
      9621      3180  TIP3      H1             21.4528964810        8.1651267438       49.3914418360  SOLV      3224            0.0000000000
      9622      3180  TIP3      H2             22.1144564810        9.4146567438       48.8502418360  SOLV      3224            0.0000000000
      9623      3181  TIP3      OH2            32.7492064810       12.1156267438       45.3767218360  SOLV      3225            0.0000000000
      9624      3181  TIP3      H1             32.3084764810       11.3952267438       45.8272818360  SOLV      3225            0.0000000000
      9625      3181  TIP3      H2             32.7361764810       12.8363467438       46.0064918360  SOLV      3225            0.0000000000
      9626      3182  TIP3      OH2            22.3349964810       13.2406867438       47.2031118360  SOLV      3226            0.0000000000
      9627      3182  TIP3      H1             21.9655164810       12.4387367438       46.8335418360  SOLV      3226            0.0000000000
      9628      3182  TIP3      H2             23.2761064810       13.0721767438       47.2494518360  SOLV      3226            0.0000000000
      9629      3183  TIP3      OH2            18.9450464810        6.9009467438       42.5959918360  SOLV      3227            0.0000000000
      9630      3183  TIP3      H1             18.4973864810        7.7468167438       42.5776418360  SOLV      3227            0.0000000000
      9631      3183  TIP3      H2             18.3841664810        6.3213667438       42.0805018360  SOLV      3227            0.0000000000
      9632      3184  TIP3      OH2            19.6556564810        9.0629067438       44.7217918360  SOLV      3228            0.0000000000
      9633      3184  TIP3      H1             19.8690064810        8.2930667438       45.2490918360  SOLV      3228            0.0000000000
      9634      3184  TIP3      H2             20.3934164810        9.1525767438       44.1185518360  SOLV      3228            0.0000000000
      9635      3185  TIP3      OH2            29.8607564810       17.2197967438       45.5887618360  SOLV      3229            0.0000000000
      9636      3185  TIP3      H1             30.4803964810       16.5432667438       45.3156818360  SOLV      3229            0.0000000000
      9637      3185  TIP3      H2             29.6524964810       17.0018767438       46.4972518360  SOLV      3229            0.0000000000
      9638      3186  TIP3      OH2            27.4326264810       11.6087267438       47.4813118360  SOLV      3230            0.0000000000
      9639      3186  TIP3      H1             27.7364164810       10.9228667438       46.8867218360  SOLV      3230            0.0000000000
      9640      3186  TIP3      H2             28.1540264810       11.7275967438       48.0991118360  SOLV      3230            0.0000000000
      9641      3187  TIP3      OH2            36.0956064810        3.2102567438       48.3419318360  SOLV      3231            0.0000000000
      9642      3187  TIP3      H1             36.1448264810        3.8203767438       49.0778418360  SOLV      3231            0.0000000000
      9643      3187  TIP3      H2             36.5211164810        3.6713467438       47.6190418360  SOLV      3231            0.0000000000
      9644      3188  TIP3      OH2            30.5733264810        6.0029667438       47.8087918360  SOLV      3232            0.0000000000
      9645      3188  TIP3      H1             30.7159164810        5.0566667438       47.8289518360  SOLV      3232            0.0000000000
      9646      3188  TIP3      H2             30.4672264810        6.2099467438       46.8802818360  SOLV      3232            0.0000000000
      9647      3189  TIP3      OH2            23.7281564810        4.1046067438       45.0812718360  SOLV      3233            0.0000000000
      9648      3189  TIP3      H1             23.7712664810        4.9644567438       44.6629018360  SOLV      3233            0.0000000000
      9649      3189  TIP3      H2             23.2705664810        3.5520767438       44.4475918360  SOLV      3233            0.0000000000
      9650      3190  TIP3      OH2            31.4504264810        4.2351667438       43.4821018360  SOLV      3234            0.0000000000
      9651      3190  TIP3      H1             32.0968564810        3.9064867438       44.1068618360  SOLV      3234            0.0000000000
      9652      3190  TIP3      H2             31.9603664810        4.7530667438       42.8592418360  SOLV      3234            0.0000000000
      9653      3191  TIP3      OH2            20.3483064810        6.5011867438       45.8434118360  SOLV      3235            0.0000000000
      9654      3191  TIP3      H1             21.0019664810        5.9513567438       46.2754218360  SOLV      3235            0.0000000000
      9655      3191  TIP3      H2             20.3722364810        6.2270867438       44.9266118360  SOLV      3235            0.0000000000
      9656      3192  TIP3      OH2            25.5047564810        8.0513167438       45.0585618360  SOLV      3236            0.0000000000
      9657      3192  TIP3      H1             26.1208564810        7.5248567438       45.5679618360  SOLV      3236            0.0000000000
      9658      3192  TIP3      H2             24.9186364810        7.4111867438       44.6549218360  SOLV      3236            0.0000000000
      9659      3193  TIP3      OH2            22.5383464810        3.0224467438       49.1553518360  SOLV      3237            0.0000000000
      9660      3193  TIP3      H1             22.3195164810        3.5525067438       48.3889518360  SOLV      3237            0.0000000000
      9661      3193  TIP3      H2             21.8704364810        3.2489967438       49.8024918360  SOLV      3237            0.0000000000
      9662      3194  TIP3      OH2            29.9073264810       12.5225567438       42.6992618360  SOLV      3238            0.0000000000
      9663      3194  TIP3      H1             29.6118364810       12.1997867438       41.8479518360  SOLV      3238            0.0000000000
      9664      3194  TIP3      H2             29.5831064810       13.4222267438       42.7405218360  SOLV      3238            0.0000000000
      9665      3195  TIP3      OH2            25.1074864810       10.6980167438       49.4427218360  SOLV      3239            0.0000000000
      9666      3195  TIP3      H1             24.3673964810       11.2961667438       49.5462418360  SOLV      3239            0.0000000000
      9667      3195  TIP3      H2             25.8214364810       11.2519767438       49.1270818360  SOLV      3239            0.0000000000
      9668      3196  TIP3      OH2            33.2142664810        3.5260967438       45.4626918360  SOLV      3240            0.0000000000
      9669      3196  TIP3      H1             32.9990664810        2.7604367438       45.9952918360  SOLV      3240            0.0000000000
      9670      3196  TIP3      H2             33.8700064810        3.9985567438       45.9755418360  SOLV      3240            0.0000000000
      9671      3197  TIP3      OH2            22.1320764810        4.9146267438       47.1075718360  SOLV      3241            0.0000000000
      9672      3197  TIP3      H1             22.7457064810        5.5473867438       47.4808118360  SOLV      3241            0.0000000000
      9673      3197  TIP3      H2             22.6441464810        4.4421267438       46.4512618360  SOLV      3241            0.0000000000
      9674      3198  TIP3      OH2            19.6360064810       12.3331067438       41.0118018360  SOLV      3242            0.0000000000
      9675      3198  TIP3      H1             19.3640964810       12.5622067438       40.1230918360  SOLV      3242            0.0000000000
      9676      3198  TIP3      H2             19.6815764810       13.1709867438       41.4723318360  SOLV      3242            0.0000000000
      9677      3199  TIP3      OH2            33.2609764810       13.9546967438       47.7246518360  SOLV      3243            0.0000000000
      9678      3199  TIP3      H1             32.3193464810       14.0130867438       47.8863418360  SOLV      3243            0.0000000000
      9679      3199  TIP3      H2             33.5375864810       14.8607467438       47.5876218360  SOLV      3243            0.0000000000
      9680      3200  TIP3      OH2            33.5616764810        2.2412267438       49.1420418360  SOLV      3244            0.0000000000
      9681      3200  TIP3      H1             32.8255964810        2.8519367438       49.1041718360  SOLV      3244            0.0000000000
      9682      3200  TIP3      H2             34.2450764810        2.6561267438       48.6156818360  SOLV      3244            0.0000000000
      9683      3201  TIP3      OH2            26.5648164810        0.3279567438       46.6078418360  SOLV      3245            0.0000000000
      9684      3201  TIP3      H1             26.4472364810       -0.6204432562       46.5536718360  SOLV      3245            0.0000000000
      9685      3201  TIP3      H2             25.7098264810        0.6605667438       46.8809518360  SOLV      3245            0.0000000000
      9686      3202  TIP3      OH2            31.5130964810       15.7360467438       44.3498118360  SOLV      3246            0.0000000000
      9687      3202  TIP3      H1             31.9383264810       15.0288367438       43.8647718360  SOLV      3246            0.0000000000
      9688      3202  TIP3      H2             31.8300964810       16.5373167438       43.9330318360  SOLV      3246            0.0000000000
      9689      3203  TIP3      OH2            32.6727464810       13.6368967438       42.8584718360  SOLV      3247            0.0000000000
      9690      3203  TIP3      H1             32.4152264810       12.9469067438       42.2470618360  SOLV      3247            0.0000000000
      9691      3203  TIP3      H2             32.7438264810       13.1940167438       43.7040618360  SOLV      3247            0.0000000000
      9692      3204  TIP3      OH2            28.8313064810        9.1655167438       41.1084218360  SOLV      3248            0.0000000000
      9693      3204  TIP3      H1             28.1198564810        9.7004867438       40.7564718360  SOLV      3248            0.0000000000
      9694      3204  TIP3      H2             29.5222664810        9.2207267438       40.4483118360  SOLV      3248            0.0000000000
      9695      3205  TIP3      OH2            28.8852264810        7.6229467438       38.1469218360  SOLV      3249            0.0000000000
      9696      3205  TIP3      H1             29.5862164810        7.6456367438       38.7983218360  SOLV      3249            0.0000000000
      9697      3205  TIP3      H2             29.1875164810        6.9949167438       37.4908518360  SOLV      3249            0.0000000000
      9698      3206  TIP3      OH2            36.2006964810        8.5433667438       49.4018618360  SOLV      3250            0.0000000000
      9699      3206  TIP3      H1             35.5481064810        9.2379267438       49.4909518360  SOLV      3250            0.0000000000
      9700      3206  TIP3      H2             36.6657264810        8.7534567438       48.5920218360  SOLV      3250            0.0000000000
      9701      3207  TIP3      OH2            32.2370764810        9.3748467438       42.0600118360  SOLV      3251            0.0000000000
      9702      3207  TIP3      H1             31.5051764810        9.6032167438       42.6330718360  SOLV      3251            0.0000000000
      9703      3207  TIP3      H2             32.6842964810        8.6611167438       42.5147618360  SOLV      3251            0.0000000000
      9704      3208  TIP3      OH2            23.8824464810       10.0054667438       43.9425118360  SOLV      3252            0.0000000000
      9705      3208  TIP3      H1             23.5519664810        9.6348067438       43.1242118360  SOLV      3252            0.0000000000
      9706      3208  TIP3      H2             24.4708564810        9.3348667438       44.2893418360  SOLV      3252            0.0000000000
      9707      3209  TIP3      OH2            25.2491964810       13.4335267438       46.6237318360  SOLV      3253            0.0000000000
      9708      3209  TIP3      H1             25.1543264810       12.8548367438       45.8671918360  SOLV      3253            0.0000000000
      9709      3209  TIP3      H2             25.9785564810       13.0620967438       47.1200118360  SOLV      3253            0.0000000000
      9710      3210  TIP3      OH2            24.2489964810        8.7740267438       47.5760118360  SOLV      3254            0.0000000000
      9711      3210  TIP3      H1             24.8142464810        8.8954467438       46.8131318360  SOLV      3254            0.0000000000
      9712      3210  TIP3      H2             24.5678864810        9.4115267438       48.2148618360  SOLV      3254            0.0000000000
      9713      3211  TIP3      OH2            30.5582164810       14.2772167438       48.3100618360  SOLV      3255            0.0000000000
      9714      3211  TIP3      H1             30.3178764810       14.9395267438       48.9579818360  SOLV      3255            0.0000000000
      9715      3211  TIP3      H2             30.3600364810       13.4427367438       48.7350218360  SOLV      3255            0.0000000000
      9716      3212  TIP3      OH2            31.1080264810        8.5371367438       39.7451318360  SOLV      3256            0.0000000000
      9717      3212  TIP3      H1             31.6875764810        8.6871667438       40.4920218360  SOLV      3256            0.0000000000
      9718      3212  TIP3      H2             31.5220264810        9.0078767438       39.0217718360  SOLV      3256            0.0000000000
      9719      3213  TIP3      OH2            28.8345164810       15.2739867438       43.1804418360  SOLV      3257            0.0000000000
      9720      3213  TIP3      H1             29.3082764810       15.5696167438       43.9578618360  SOLV      3257            0.0000000000
      9721      3213  TIP3      H2             28.2714464810       16.0121467438       42.9474018360  SOLV      3257            0.0000000000
      9722      3214  TIP3      OH2            34.8068664810        0.2871767438       39.5581018360  SOLV      3258            0.0000000000
      9723      3214  TIP3      H1             33.9069364810        0.4260767438       39.8531618360  SOLV      3258            0.0000000000
      9724      3214  TIP3      H2             35.0587064810        1.1186367438       39.1562718360  SOLV      3258            0.0000000000
      9725      3215  TIP3      OH2            22.8727164810        9.0748967438       41.5317918360  SOLV      3259            0.0000000000
      9726      3215  TIP3      H1             22.5808464810        9.8430667438       41.0409218360  SOLV      3259            0.0000000000
      9727      3215  TIP3      H2             22.1982364810        8.4155167438       41.3689318360  SOLV      3259            0.0000000000
      9728      3216  TIP3      OH2            35.9960064810       14.6534167438       37.9344918360  SOLV      3260            0.0000000000
      9729      3216  TIP3      H1             36.0693564810       15.5924367438       38.1050218360  SOLV      3260            0.0000000000
      9730      3216  TIP3      H2             36.9015164810       14.3482767438       37.8782218360  SOLV      3260            0.0000000000
      9731      3217  TIP3      OH2            18.7159964810       14.2181967438       47.2307918360  SOLV      3261            0.0000000000
      9732      3217  TIP3      H1             19.6620564810       14.0738967438       47.2117418360  SOLV      3261            0.0000000000
      9733      3217  TIP3      H2             18.6036264810       15.0024767438       47.7679118360  SOLV      3261            0.0000000000
      9734      3218  TIP3      OH2            28.3068264810       18.2304567438       41.5953618360  SOLV      3262            0.0000000000
      9735      3218  TIP3      H1             28.2314264810       18.1091767438       40.6488818360  SOLV      3262            0.0000000000
      9736      3218  TIP3      H2             28.3396964810       19.1797267438       41.7138218360  SOLV      3262            0.0000000000
      9737      3219  TIP3      OH2            21.9602064810       17.0191567438       43.3762618360  SOLV      3263            0.0000000000
      9738      3219  TIP3      H1             22.1122464810       16.6711967438       44.2549118360  SOLV      3263            0.0000000000
      9739      3219  TIP3      H2             21.1092464810       16.6628867438       43.1209818360  SOLV      3263            0.0000000000
      9740      3220  TIP3      OH2            31.4084264810       17.3844767438       38.5976018360  SOLV      3264            0.0000000000
      9741      3220  TIP3      H1             31.7832664810       16.6400867438       38.1268618360  SOLV      3264            0.0000000000
      9742      3220  TIP3      H2             31.4127964810       17.1145367438       39.5159318360  SOLV      3264            0.0000000000
      9743      3221  TIP3      OH2            31.0772364810       17.3101867438       41.3468218360  SOLV      3265            0.0000000000
      9744      3221  TIP3      H1             30.1422164810       17.4103767438       41.5255218360  SOLV      3265            0.0000000000
      9745      3221  TIP3      H2             31.3574264810       16.6007867438       41.9251418360  SOLV      3265            0.0000000000
      9746      3222  TIP3      OH2            23.8335764810        1.2314067438       47.3854718360  SOLV      3266            0.0000000000
      9747      3222  TIP3      H1             22.9719464810        1.1442267438       46.9777618360  SOLV      3266            0.0000000000
      9748      3222  TIP3      H2             23.8111464810        2.0874167438       47.8132318360  SOLV      3266            0.0000000000
      9749      3223  TIP3      OH2            32.5853364810        9.5699667438       37.3749218360  SOLV      3267            0.0000000000
      9750      3223  TIP3      H1             32.6274164810        9.3473567438       36.4449218360  SOLV      3267            0.0000000000
      9751      3223  TIP3      H2             33.4345464810        9.9686767438       37.5649118360  SOLV      3267            0.0000000000
      9752      3224  TIP3      OH2            28.1580864810        3.4457867438       38.0452518360  SOLV      3268            0.0000000000
      9753      3224  TIP3      H1             27.9045664810        3.4649467438       38.9680618360  SOLV      3268            0.0000000000
      9754      3224  TIP3      H2             27.9012964810        2.5743267438       37.7438718360  SOLV      3268            0.0000000000
      9755      3225  TIP3      OH2            23.9245864810        6.1968567438       48.4804918360  SOLV      3269            0.0000000000
      9756      3225  TIP3      H1             23.2827964810        6.1565867438       49.1895018360  SOLV      3269            0.0000000000
      9757      3225  TIP3      H2             23.9617864810        7.1233267438       48.2427918360  SOLV      3269            0.0000000000
      9758      3226  TIP3      OH2            23.9214964810        6.4178667438       43.3924918360  SOLV      3270            0.0000000000
      9759      3226  TIP3      H1             23.0287864810        6.0774767438       43.3338718360  SOLV      3270            0.0000000000
      9760      3226  TIP3      H2             24.3721564810        6.0409567438       42.6368118360  SOLV      3270            0.0000000000
      9761      3227  TIP3      OH2            29.4570464810        6.8338967438       42.2095718360  SOLV      3271            0.0000000000
      9762      3227  TIP3      H1             29.0480764810        7.6487567438       41.9180518360  SOLV      3271            0.0000000000
      9763      3227  TIP3      H2             30.1776664810        6.6939067438       41.5952818360  SOLV      3271            0.0000000000
      9764      3228  TIP3      OH2            30.4618164810        6.2799367438       45.0235418360  SOLV      3272            0.0000000000
      9765      3228  TIP3      H1             30.2662664810        6.8856167438       44.3086018360  SOLV      3272            0.0000000000
      9766      3228  TIP3      H2             30.6430764810        5.4464567438       44.5891718360  SOLV      3272            0.0000000000
      9767      3229  TIP3      OH2            25.0403764810        3.8914367438       37.1462918360  SOLV      3273            0.0000000000
      9768      3229  TIP3      H1             24.6094464810        3.4464467438       37.8760318360  SOLV      3273            0.0000000000
      9769      3229  TIP3      H2             24.3222464810        4.2630667438       36.6340418360  SOLV      3273            0.0000000000
      9770      3230  TIP3      OH2            18.2827164810        3.6333867438       44.1981618360  SOLV      3274            0.0000000000
      9771      3230  TIP3      H1             18.9134864810        3.6045967438       44.9175518360  SOLV      3274            0.0000000000
      9772      3230  TIP3      H2             18.7321464810        3.2082567438       43.4677518360  SOLV      3274            0.0000000000
      9773      3231  TIP3      OH2            19.5569264810        4.3795867438       39.6222018360  SOLV      3275            0.0000000000
      9774      3231  TIP3      H1             20.0310964810        4.9705767438       39.0372918360  SOLV      3275            0.0000000000
      9775      3231  TIP3      H2             18.8395664810        4.9098767438       39.9692118360  SOLV      3275            0.0000000000
      9776      3232  TIP3      OH2            29.7257364810        7.9180667438       49.6947818360  SOLV      3276            0.0000000000
      9777      3232  TIP3      H1             30.0492164810        7.2870367438       49.0518318360  SOLV      3276            0.0000000000
      9778      3232  TIP3      H2             29.2856664810        7.3832867438       50.3555218360  SOLV      3276            0.0000000000
      9779      3233  TIP3      OH2            26.5030264810        3.8456167438       44.4789018360  SOLV      3277            0.0000000000
      9780      3233  TIP3      H1             25.5921364810        3.9022967438       44.7675018360  SOLV      3277            0.0000000000
      9781      3233  TIP3      H2             27.0083164810        3.7851667438       45.2896218360  SOLV      3277            0.0000000000
      9782      3234  TIP3      OH2            21.3313664810        5.4742467438       43.3056618360  SOLV      3278            0.0000000000
      9783      3234  TIP3      H1             20.4421664810        5.5737967438       42.9656218360  SOLV      3278            0.0000000000
      9784      3234  TIP3      H2             21.6278564810        4.6325467438       42.9594518360  SOLV      3278            0.0000000000
      9785      3235  TIP3      OH2            24.9845464810        5.4745067438       40.9621218360  SOLV      3279            0.0000000000
      9786      3235  TIP3      H1             25.9160964810        5.6035067438       41.1404318360  SOLV      3279            0.0000000000
      9787      3235  TIP3      H2             24.7695764810        6.1439367438       40.3125918360  SOLV      3279            0.0000000000
      9788      3236  TIP3      OH2            30.9082164810        3.0802467438       47.7430818360  SOLV      3280            0.0000000000
      9789      3236  TIP3      H1             30.2313764810        3.2115567438       48.4070518360  SOLV      3280            0.0000000000
      9790      3236  TIP3      H2             30.4227064810        2.9251967438       46.9328518360  SOLV      3280            0.0000000000
      9791      3237  TIP3      OH2            23.6585664810        6.6687267438       38.5287318360  SOLV      3281            0.0000000000
      9792      3237  TIP3      H1             23.1160764810        6.2891067438       37.8374918360  SOLV      3281            0.0000000000
      9793      3237  TIP3      H2             24.4920564810        6.8631967438       38.1001418360  SOLV      3281            0.0000000000
      9794      3238  TIP3      OH2            27.8229964810        6.6329167438       46.3658618360  SOLV      3282            0.0000000000
      9795      3238  TIP3      H1             28.3873364810        6.0865767438       45.8188218360  SOLV      3282            0.0000000000
      9796      3238  TIP3      H2             27.6753364810        6.1111067438       47.1546218360  SOLV      3282            0.0000000000
      9797      3239  TIP3      OH2            22.8249664810        2.7695267438       42.7843418360  SOLV      3283            0.0000000000
      9798      3239  TIP3      H1             22.5079164810        1.8670567438       42.7488818360  SOLV      3283            0.0000000000
      9799      3239  TIP3      H2             23.6063764810        2.7712667438       42.2315018360  SOLV      3283            0.0000000000
      9800      3240  TIP3      OH2            26.4495864810        5.0215267438       48.7799018360  SOLV      3284            0.0000000000
      9801      3240  TIP3      H1             25.6141164810        5.4754767438       48.8901418360  SOLV      3284            0.0000000000
      9802      3240  TIP3      H2             26.9736464810        5.2973767438       49.5318918360  SOLV      3284            0.0000000000
      9803      3241  TIP3      OH2            26.9938464810       11.2342967438       40.4645418360  SOLV      3285            0.0000000000
      9804      3241  TIP3      H1             26.2489464810       10.7268267438       40.1423318360  SOLV      3285            0.0000000000
      9805      3241  TIP3      H2             26.8595664810       11.2830967438       41.4110218360  SOLV      3285            0.0000000000
      9806      3242  TIP3      OH2            34.1437364810       10.3671167438       49.2513018360  SOLV      3286            0.0000000000
      9807      3242  TIP3      H1             34.7856164810       10.8237467438       48.7075218360  SOLV      3286            0.0000000000
      9808      3242  TIP3      H2             33.3134264810       10.4803567438       48.7887118360  SOLV      3286            0.0000000000
      9809      3243  TIP3      OH2            30.8915264810        4.0482867438       38.6638018360  SOLV      3287            0.0000000000
      9810      3243  TIP3      H1             29.9529464810        4.1598467438       38.5126818360  SOLV      3287            0.0000000000
      9811      3243  TIP3      H2             31.1887364810        4.9049767438       38.9703718360  SOLV      3287            0.0000000000
      9812      3244  TIP3      OH2            31.6098764810        5.9155567438       40.3245418360  SOLV      3288            0.0000000000
      9813      3244  TIP3      H1             32.5017764810        5.7780567438       40.6436618360  SOLV      3288            0.0000000000
      9814      3244  TIP3      H2             31.6662364810        6.7061667438       39.7878918360  SOLV      3288            0.0000000000
      9815      3245  TIP3      OH2            22.1186764810       10.5292967438       46.2343318360  SOLV      3289            0.0000000000
      9816      3245  TIP3      H1             22.8633964810       10.5268667438       45.6329818360  SOLV      3289            0.0000000000
      9817      3245  TIP3      H2             22.1963364810        9.7056767438       46.7158418360  SOLV      3289            0.0000000000
      9818      3246  TIP3      OH2            29.1192564810       12.6927267438       39.4900018360  SOLV      3290            0.0000000000
      9819      3246  TIP3      H1             28.8240964810       13.5195167438       39.8714818360  SOLV      3290            0.0000000000
      9820      3246  TIP3      H2             28.4162564810       12.0734167438       39.6861418360  SOLV      3290            0.0000000000
      9821      3247  TIP3      OH2            36.4947464810        6.1249667438       40.0192118360  SOLV      3291            0.0000000000
      9822      3247  TIP3      H1             35.9403764810        5.7287667438       39.3469618360  SOLV      3291            0.0000000000
      9823      3247  TIP3      H2             36.5951064810        7.0354867438       39.7415418360  SOLV      3291            0.0000000000
      9824      3248  TIP3      OH2            34.7899164810       14.9110067438       40.4844218360  SOLV      3292            0.0000000000
      9825      3248  TIP3      H1             34.4170264810       14.0853867438       40.7934818360  SOLV      3292            0.0000000000
      9826      3248  TIP3      H2             35.0672664810       14.7279467438       39.5867618360  SOLV      3292            0.0000000000
      9827      3249  TIP3      OH2            31.9503064810        9.7189567438       47.5056118360  SOLV      3293            0.0000000000
      9828      3249  TIP3      H1             31.0219964810        9.4871467438       47.4785418360  SOLV      3293            0.0000000000
      9829      3249  TIP3      H2             32.4014164810        8.9419367438       47.1754918360  SOLV      3293            0.0000000000
      9830      3250  TIP3      OH2            24.4936164810       14.0471167438       43.6384818360  SOLV      3294            0.0000000000
      9831      3250  TIP3      H1             25.0208364810       14.8205567438       43.4383618360  SOLV      3294            0.0000000000
      9832      3250  TIP3      H2             23.6134664810       14.2720367438       43.3368818360  SOLV      3294            0.0000000000
      9833      3251  TIP3      OH2            20.2483864810        8.9095267438       38.2257218360  SOLV      3295            0.0000000000
      9834      3251  TIP3      H1             20.8643764810        9.5362467438       38.6052018360  SOLV      3295            0.0000000000
      9835      3251  TIP3      H2             19.3866464810        9.2255067438       38.4973718360  SOLV      3295            0.0000000000
      9836      3252  TIP3      OH2            25.9208464810       11.7101067438       43.2149118360  SOLV      3296            0.0000000000
      9837      3252  TIP3      H1             25.6798464810       12.6355467438       43.2564418360  SOLV      3296            0.0000000000
      9838      3252  TIP3      H2             25.1802064810       11.2512367438       43.6113018360  SOLV      3296            0.0000000000
      9839      3253  TIP3      OH2            26.4355064810       15.8594667438       49.5300218360  SOLV      3297            0.0000000000
      9840      3253  TIP3      H1             26.7979764810       16.7140267438       49.2964618360  SOLV      3297            0.0000000000
      9841      3253  TIP3      H2             26.9670264810       15.5676267438       50.2706518360  SOLV      3297            0.0000000000
      9842      3254  TIP3      OH2            24.6039264810       16.7318667438       42.7601318360  SOLV      3298            0.0000000000
      9843      3254  TIP3      H1             23.6539764810       16.8376067438       42.8114618360  SOLV      3298            0.0000000000
      9844      3254  TIP3      H2             24.9557364810       17.5526067438       43.1048818360  SOLV      3298            0.0000000000
      9845      3255  TIP3      OH2            29.9795864810       11.9585367438       49.2305818360  SOLV      3299            0.0000000000
      9846      3255  TIP3      H1             29.5537164810       11.7307067438       50.0569818360  SOLV      3299            0.0000000000
      9847      3255  TIP3      H2             30.5601664810       11.2197167438       49.0481118360  SOLV      3299            0.0000000000
      9848      3256  TIP3      OH2            32.1824764810       12.8875867438       38.3044818360  SOLV      3300            0.0000000000
      9849      3256  TIP3      H1             32.5357864810       12.5075667438       39.1088318360  SOLV      3300            0.0000000000
      9850      3256  TIP3      H2             31.2338264810       12.7940667438       38.3914118360  SOLV      3300            0.0000000000
      9851      3257  TIP3      OH2            36.6859164810       17.3668367438       38.5055018360  SOLV      3301            0.0000000000
      9852      3257  TIP3      H1             37.4297064810       17.9528867438       38.3656618360  SOLV      3301            0.0000000000
      9853      3257  TIP3      H2             35.9917264810       17.9354167438       38.8387418360  SOLV      3301            0.0000000000
      9854      3258  TIP3      OH2            33.0484064810       11.5597867438       40.5312718360  SOLV      3302            0.0000000000
      9855      3258  TIP3      H1             32.7711664810       10.8317167438       41.0873818360  SOLV      3302            0.0000000000
      9856      3258  TIP3      H2             33.9757064810       11.6789867438       40.7365318360  SOLV      3302            0.0000000000
      9857      3259  TIP3      OH2            20.4117964810       15.5476967438       49.5422618360  SOLV      3303            0.0000000000
      9858      3259  TIP3      H1             20.6288264810       14.6159367438       49.5112318360  SOLV      3303            0.0000000000
      9859      3259  TIP3      H2             20.6581464810       15.8221967438       50.4255418360  SOLV      3303            0.0000000000
      9860      3260  TIP3      OH2            26.2732564810       13.9991967438       36.7514818360  SOLV      3304            0.0000000000
      9861      3260  TIP3      H1             26.5122364810       13.2510067438       36.2043718360  SOLV      3304            0.0000000000
      9862      3260  TIP3      H2             26.0043864810       13.6113667438       37.5842618360  SOLV      3304            0.0000000000
      9863      3261  TIP3      OH2            25.2103164810       13.5695767438       39.2077418360  SOLV      3305            0.0000000000
      9864      3261  TIP3      H1             25.3571164810       13.0495567438       39.9978318360  SOLV      3305            0.0000000000
      9865      3261  TIP3      H2             25.2074864810       14.4763367438       39.5143318360  SOLV      3305            0.0000000000
      9866      3262  TIP3      OH2            21.6634264810       10.8219067438       39.7182818360  SOLV      3306            0.0000000000
      9867      3262  TIP3      H1             20.9773564810       11.1741567438       40.2852518360  SOLV      3306            0.0000000000
      9868      3262  TIP3      H2             22.1862164810       11.5848667438       39.4717118360  SOLV      3306            0.0000000000
      9869      3263  TIP3      OH2            30.2794264810        3.1364567438       41.0944118360  SOLV      3307            0.0000000000
      9870      3263  TIP3      H1             30.4992564810        3.6079967438       40.2909518360  SOLV      3307            0.0000000000
      9871      3263  TIP3      H2             30.8378264810        3.5307167438       41.7644718360  SOLV      3307            0.0000000000
      9872      3264  TIP3      OH2            27.9480364810       15.2669367438       39.9571618360  SOLV      3308            0.0000000000
      9873      3264  TIP3      H1             27.1316464810       15.7639067438       40.0095918360  SOLV      3308            0.0000000000
      9874      3264  TIP3      H2             28.4776664810       15.7422867438       39.3170418360  SOLV      3308            0.0000000000
      9875      3265  TIP3      OH2            27.4794164810        4.8643367438       41.9292518360  SOLV      3309            0.0000000000
      9876      3265  TIP3      H1             28.2916764810        5.3686567438       41.9754218360  SOLV      3309            0.0000000000
      9877      3265  TIP3      H2             27.2347164810        4.7193067438       42.8432118360  SOLV      3309            0.0000000000
      9878      3266  TIP3      OH2            28.3630864810        1.9456367438       42.8673618360  SOLV      3310            0.0000000000
      9879      3266  TIP3      H1             28.0164364810        2.5626967438       43.5117918360  SOLV      3310            0.0000000000
      9880      3266  TIP3      H2             29.0217764810        2.4462067438       42.3859118360  SOLV      3310            0.0000000000
      9881      3267  TIP3      OH2            25.2863464810       16.3106567438       39.9388518360  SOLV      3311            0.0000000000
      9882      3267  TIP3      H1             25.4472164810       17.1104067438       39.4381118360  SOLV      3311            0.0000000000
      9883      3267  TIP3      H2             25.0891264810       16.6172567438       40.8239118360  SOLV      3311            0.0000000000
      9884      3268  TIP3      OH2            24.0207864810        3.0085767438       39.5546118360  SOLV      3312            0.0000000000
      9885      3268  TIP3      H1             23.9372664810        3.8968867438       39.9012518360  SOLV      3312            0.0000000000
      9886      3268  TIP3      H2             24.9108164810        2.7432467438       39.7862918360  SOLV      3312            0.0000000000
      9887      3269  TIP3      OH2            32.8217364810        7.5077367438       46.0446118360  SOLV      3313            0.0000000000
      9888      3269  TIP3      H1             32.0241764810        7.0927567438       45.7161118360  SOLV      3313            0.0000000000
      9889      3269  TIP3      H2             33.2668464810        6.8171067438       46.5356618360  SOLV      3313            0.0000000000
      9890      3270  TIP3      OH2            22.2793164810       13.4357967438       38.6150618360  SOLV      3314            0.0000000000
      9891      3270  TIP3      H1             22.8714664810       14.1352767438       38.8913018360  SOLV      3314            0.0000000000
      9892      3270  TIP3      H2             22.7386164810       13.0027467438       37.8955218360  SOLV      3314            0.0000000000
      9893      3271  TIP3      OH2            20.5952364810        6.1000967438       37.7310018360  SOLV      3315            0.0000000000
      9894      3271  TIP3      H1             20.5504964810        7.0394067438       37.9097018360  SOLV      3315            0.0000000000
      9895      3271  TIP3      H2             19.7075564810        5.8645867438       37.4612118360  SOLV      3315            0.0000000000
      9896      3272  TIP3      OH2            33.9081964810       16.7639867438       47.6669618360  SOLV      3316            0.0000000000
      9897      3272  TIP3      H1             33.7526264810       17.4424267438       47.0098918360  SOLV      3316            0.0000000000
      9898      3272  TIP3      H2             34.8408364810       16.8359167438       47.8700218360  SOLV      3316            0.0000000000
      9899      3273  TIP3      OH2            21.4034364810        0.8817567438       46.4041018360  SOLV      3317            0.0000000000
      9900      3273  TIP3      H1             21.1744164810        0.9410067438       45.4766018360  SOLV      3317            0.0000000000
      9901      3273  TIP3      H2             20.9607764810        0.0903067438       46.7105118360  SOLV      3317            0.0000000000
      9902      3274  TIP3      OH2            20.3337664810       14.8224667438       42.5646818360  SOLV      3318            0.0000000000
      9903      3274  TIP3      H1             19.5016264810       15.2947367438       42.5918218360  SOLV      3318            0.0000000000
      9904      3274  TIP3      H2             20.8795964810       15.3322267438       41.9659918360  SOLV      3318            0.0000000000
      9905      3275  TIP3      OH2            28.3114364810       15.8623367438       36.8900818360  SOLV      3319            0.0000000000
      9906      3275  TIP3      H1             27.6675364810       15.2311967438       37.2114518360  SOLV      3319            0.0000000000
      9907      3275  TIP3      H2             29.0732664810       15.3311367438       36.6584318360  SOLV      3319            0.0000000000
      9908      3276  TIP3      OH2            32.9157264810       15.6793267438       37.1238818360  SOLV      3320            0.0000000000
      9909      3276  TIP3      H1             33.1987664810       14.8848467438       37.5765718360  SOLV      3320            0.0000000000
      9910      3276  TIP3      H2             33.6555164810       15.9124267438       36.5629918360  SOLV      3320            0.0000000000
      9911      3277  TIP3      OH2            23.8704564810       11.5888167438       36.9813718360  SOLV      3321            0.0000000000
      9912      3277  TIP3      H1             23.9348664810       10.7947767438       37.5120118360  SOLV      3321            0.0000000000
      9913      3277  TIP3      H2             24.5233764810       11.4700967438       36.2915718360  SOLV      3321            0.0000000000
      9914      3278  TIP3      OH2            29.2227964810       12.6359867438       36.7171718360  SOLV      3322            0.0000000000
      9915      3278  TIP3      H1             28.9542064810       12.8161967438       37.6180618360  SOLV      3322            0.0000000000
      9916      3278  TIP3      H2             29.0163564810       11.7106067438       36.5857518360  SOLV      3322            0.0000000000
      9917      3279  TIP3      OH2            25.0198364810        9.5614367438       39.2871718360  SOLV      3323            0.0000000000
      9918      3279  TIP3      H1             24.5600364810        9.0772667438       39.9730218360  SOLV      3323            0.0000000000
      9919      3279  TIP3      H2             25.2747064810        8.8929767438       38.6512218360  SOLV      3323            0.0000000000
      9920      3280  TIP3      OH2            26.0908764810        7.8046167438       37.5494918360  SOLV      3324            0.0000000000
      9921      3280  TIP3      H1             25.9103764810        7.6497367438       36.6223218360  SOLV      3324            0.0000000000
      9922      3280  TIP3      H2             27.0409264810        7.9124867438       37.5942818360  SOLV      3324            0.0000000000
      9923      3281  TIP3      OH2            35.4807064810       10.1590367438       36.9953018360  SOLV      3325            0.0000000000
      9924      3281  TIP3      H1             35.2071864810        9.7345867438       36.1821318360  SOLV      3325            0.0000000000
      9925      3281  TIP3      H2             35.5201164810       11.0904867438       36.7783418360  SOLV      3325            0.0000000000
      9926      3282  TIP3      OH2            25.9880464810       18.4949867438       38.5508518360  SOLV      3326            0.0000000000
      9927      3282  TIP3      H1             26.9211164810       18.6528567438       38.6946918360  SOLV      3326            0.0000000000
      9928      3282  TIP3      H2             25.7239264810       19.1702867438       37.9260018360  SOLV      3326            0.0000000000
      9929      3283  TIP3      OH2            19.5565364810       13.1313667438       38.0336618360  SOLV      3327            0.0000000000
      9930      3283  TIP3      H1             20.4704564810       13.2102567438       38.3070518360  SOLV      3327            0.0000000000
      9931      3283  TIP3      H2             19.5638464810       12.4443267438       37.3672218360  SOLV      3327            0.0000000000
      9932      3284  TIP3      OH2            18.2055964810       18.5242167438       43.1110518360  SOLV      3328            0.0000000000
      9933      3284  TIP3      H1             17.5583064810       18.0623867438       42.5781718360  SOLV      3328            0.0000000000
      9934      3284  TIP3      H2             18.5600564810       17.8525467438       43.6936718360  SOLV      3328            0.0000000000
      9935      3285  TIP3      OH2            19.0755164810       16.6049167438       44.9156718360  SOLV      3329            0.0000000000
      9936      3285  TIP3      H1             18.7411964810       15.7246467438       45.0876918360  SOLV      3329            0.0000000000
      9937      3285  TIP3      H2             19.2977564810       16.9504167438       45.7802318360  SOLV      3329            0.0000000000
      9938      3286  TIP3      OH2            36.6239964810       17.4145567438       47.8961518360  SOLV      3330            0.0000000000
      9939      3286  TIP3      H1             36.6026664810       17.5993967438       48.8350918360  SOLV      3330            0.0000000000
      9940      3286  TIP3      H2             37.3146164810       17.9829567438       47.5552918360  SOLV      3330            0.0000000000
      9941      3287  TIP3      OH2            35.9389864810       11.0278467438       40.9703418360  SOLV      3331            0.0000000000
      9942      3287  TIP3      H1             36.7891264810       11.4489367438       41.0975018360  SOLV      3331            0.0000000000
      9943      3287  TIP3      H2             35.9444964810       10.2878567438       41.5774818360  SOLV      3331            0.0000000000
      9944      3288  TIP3      OH2            36.3335464810        9.0815867438       42.7939118360  SOLV      3332            0.0000000000
      9945      3288  TIP3      H1             35.6070064810        8.6018467438       43.1916718360  SOLV      3332            0.0000000000
      9946      3288  TIP3      H2             36.9148764810        9.2870567438       43.5260718360  SOLV      3332            0.0000000000
      9947      3289  TIP3      OH2            36.0926664810       11.8663367438       47.7416718360  SOLV      3333            0.0000000000
      9948      3289  TIP3      H1             36.9260864810       11.4883367438       47.4610318360  SOLV      3333            0.0000000000
      9949      3289  TIP3      H2             36.2046964810       12.8094567438       47.6225818360  SOLV      3333            0.0000000000
      9950      3290  TIP3      OH2            36.6018564810        8.9824367438       39.1850418360  SOLV      3334            0.0000000000
      9951      3290  TIP3      H1             36.0799664810        9.3388467438       38.4661318360  SOLV      3334            0.0000000000
      9952      3290  TIP3      H2             36.5687764810        9.6572167438       39.8631318360  SOLV      3334            0.0000000000
      9953      3291  TIP3      OH2            34.9507564810        6.2219967438       37.7357518360  SOLV      3335            0.0000000000
      9954      3291  TIP3      H1             35.0471964810        6.8886967438       37.0557218360  SOLV      3335            0.0000000000
      9955      3291  TIP3      H2             34.8107164810        5.4066267438       37.2543018360  SOLV      3335            0.0000000000
      9956      3292  TIP3      OH2            34.1202264810        7.6022367438       43.3567818360  SOLV      3336            0.0000000000
      9957      3292  TIP3      H1             33.9701064810        6.6570967438       43.3365618360  SOLV      3336            0.0000000000
      9958      3292  TIP3      H2             33.7666764810        7.8833767438       44.2006918360  SOLV      3336            0.0000000000
      9959      3293  TIP3      OH2            19.1554664810        9.6804567438       47.3671618360  SOLV      3337            0.0000000000
      9960      3293  TIP3      H1             19.3397564810        9.5986267438       46.4314518360  SOLV      3337            0.0000000000
      9961      3293  TIP3      H2             20.0047564810        9.5561567438       47.7908018360  SOLV      3337            0.0000000000
      9962      3294  TIP3      OH2            34.1981364810        3.6299767438       36.8533018360  SOLV      3338            0.0000000000
      9963      3294  TIP3      H1             34.8087164810        3.2586567438       37.4901218360  SOLV      3338            0.0000000000
      9964      3294  TIP3      H2             33.3612864810        3.2086667438       37.0493018360  SOLV      3338            0.0000000000
      9965      3295  TIP3      OH2            33.8307064810        5.1848167438       41.8192918360  SOLV      3339            0.0000000000
      9966      3295  TIP3      H1             34.1104164810        4.2778567438       41.9434618360  SOLV      3339            0.0000000000
      9967      3295  TIP3      H2             34.5898764810        5.6189667438       41.4302118360  SOLV      3339            0.0000000000
      9968      3296  TIP3      OH2            34.4425364810        5.7665567438       47.2551818360  SOLV      3340            0.0000000000
      9969      3296  TIP3      H1             35.3753364810        5.9785467438       47.2207818360  SOLV      3340            0.0000000000
      9970      3296  TIP3      H2             34.2072864810        5.8677667438       48.1774818360  SOLV      3340            0.0000000000
      9971      3297  TIP3      OH2            34.4441864810        2.4477467438       41.8674918360  SOLV      3341            0.0000000000
      9972      3297  TIP3      H1             34.6266864810        1.9988967438       42.6929918360  SOLV      3341            0.0000000000
      9973      3297  TIP3      H2             33.8444764810        1.8631867438       41.4039518360  SOLV      3341            0.0000000000
      9974      3298  TIP3      OH2            19.9741964810        3.2631167438       46.3993318360  SOLV      3342            0.0000000000
      9975      3298  TIP3      H1             20.4193564810        2.4713667438       46.7013018360  SOLV      3342            0.0000000000
      9976      3298  TIP3      H2             20.4404964810        3.9796367438       46.8298918360  SOLV      3342            0.0000000000
      9977      3299  TIP3      OH2            18.2782264810        6.2624167438       47.4683518360  SOLV      3343            0.0000000000
      9978      3299  TIP3      H1             18.7702064810        6.0414667438       46.6775518360  SOLV      3343            0.0000000000
      9979      3299  TIP3      H2             18.6403164810        7.1027567438       47.7493018360  SOLV      3343            0.0000000000
      9980      3300  TIP3      OH2            36.3108064810        2.5155567438       38.3955218360  SOLV      3344            0.0000000000
      9981      3300  TIP3      H1             36.7230664810        1.7941267438       37.9203218360  SOLV      3344            0.0000000000
      9982      3300  TIP3      H2             36.9924564810        3.1850167438       38.4539518360  SOLV      3344            0.0000000000
      9983      3301  TIP3      OH2            18.5918764810        2.5203267438       41.5225918360  SOLV      3345            0.0000000000
      9984      3301  TIP3      H1             17.6667164810        2.7289867438       41.3931418360  SOLV      3345            0.0000000000
      9985      3301  TIP3      H2             19.0458664810        3.0044067438       40.8328218360  SOLV      3345            0.0000000000
      9986      3302  TIP3      OH2            33.3625964810       17.5044967438       43.4683318360  SOLV      3346            0.0000000000
      9987      3302  TIP3      H1             34.0148864810       17.1567067438       42.8602418360  SOLV      3346            0.0000000000
      9988      3302  TIP3      H2             33.8729764810       17.9928167438       44.1143018360  SOLV      3346            0.0000000000
      9989      3303  TIP3      OH2            18.5554164810        1.2582267438       49.8668418360  SOLV      3347            0.0000000000
      9990      3303  TIP3      H1             17.8904664810        1.0122567438       50.5099318360  SOLV      3347            0.0000000000
      9991      3303  TIP3      H2             18.1125464810        1.8802667438       49.2896418360  SOLV      3347            0.0000000000
      9992      3304  TIP3      OH2            23.5705664810       18.2645367438       49.3470718360  SOLV      3348            0.0000000000
      9993      3304  TIP3      H1             22.7057864810       18.3363867438       49.7510818360  SOLV      3348            0.0000000000
      9994      3304  TIP3      H2             23.5154664810       18.8112667438       48.5633218360  SOLV      3348            0.0000000000
      9995      3305  TIP3      OH2            28.2811264810       18.1524267438       48.5226718360  SOLV      3349            0.0000000000
      9996      3305  TIP3      H1             27.8245264810       18.6813967438       47.8685118360  SOLV      3349            0.0000000000
      9997      3305  TIP3      H2             28.4439264810       18.7555667438       49.2479018360  SOLV      3349            0.0000000000
      9998      3306  TIP3      OH2            30.6087564810       17.0303867438       49.4677018360  SOLV      3350            0.0000000000
      9999      3306  TIP3      H1             29.7041264810       17.1954067438       49.2019118360  SOLV      3350            0.0000000000
     10000      3306  TIP3      H2             31.0376164810       17.8836067438       49.4020418360  SOLV      3350            0.0000000000
     10001      3307  TIP3      OH2            33.2129464810       18.6002967438       49.7624818360  SOLV      3351            0.0000000000
     10002      3307  TIP3      H1             33.0311464810       19.5161867438       49.5519718360  SOLV      3351            0.0000000000
     10003      3307  TIP3      H2             33.3897264810       18.1900067438       48.9159418360  SOLV      3351            0.0000000000
     10004      3308  TIP3      OH2            20.5181164810       17.2873967438       47.2275318360  SOLV      3352            0.0000000000
     10005      3308  TIP3      H1             20.4997164810       16.8619067438       48.0847618360  SOLV      3352            0.0000000000
     10006      3308  TIP3      H2             21.3229064810       16.9688967438       46.8187518360  SOLV      3352            0.0000000000
     10007      3309  TIP3      OH2            22.6594264810       15.9972667438       45.8825218360  SOLV      3353            0.0000000000
     10008      3309  TIP3      H1             22.4404964810       15.0810067438       46.0521218360  SOLV      3353            0.0000000000
     10009      3309  TIP3      H2             23.4836464810       16.1373067438       46.3486618360  SOLV      3353            0.0000000000
     10010      3310  TIP3      OH2            25.1966764810       16.4671967438       46.7313218360  SOLV      3354            0.0000000000
     10011      3310  TIP3      H1             25.4092464810       15.5790967438       46.4444118360  SOLV      3354            0.0000000000
     10012      3310  TIP3      H2             25.2611864810       16.4329667438       47.6857218360  SOLV      3354            0.0000000000
     10013      3311  TIP3      OH2            28.7050464810        2.1312567438       45.8756518360  SOLV      3355            0.0000000000
     10014      3311  TIP3      H1             28.0307264810        1.5018167438       46.1312318360  SOLV      3355            0.0000000000
     10015      3311  TIP3      H2             29.2689664810        1.6471467438       45.2724418360  SOLV      3355            0.0000000000
     10016      3312  TIP3      OH2            33.8477664810        0.2386567438       45.9883618360  SOLV      3356            0.0000000000
     10017      3312  TIP3      H1             34.4515264810        0.7861967438       45.4864618360  SOLV      3356            0.0000000000
     10018      3312  TIP3      H2             32.9779664810        0.5576967438       45.7477718360  SOLV      3356            0.0000000000
     10019      3313  TIP3      OH2            35.5748064810        1.3775267438       44.3214518360  SOLV      3357            0.0000000000
     10020      3313  TIP3      H1             36.1865564810        0.8630967438       43.7948118360  SOLV      3357            0.0000000000
     10021      3313  TIP3      H2             35.9571464810        2.2547367438       44.3448918360  SOLV      3357            0.0000000000
     10022      3314  TIP3      OH2            21.0317964810        0.7652867438       43.6976418360  SOLV      3358            0.0000000000
     10023      3314  TIP3      H1             20.2547764810        0.5307767438       43.1902318360  SOLV      3358            0.0000000000
     10024      3314  TIP3      H2             21.5621564810       -0.0315032562       43.7064418360  SOLV      3358            0.0000000000
     10025      3315  TIP3      OH2            19.8681364810        0.5630967438       39.5012518360  SOLV      3359            0.0000000000
     10026      3315  TIP3      H1             20.3072064810        1.1741467438       38.9096018360  SOLV      3359            0.0000000000
     10027      3315  TIP3      H2             19.2343764810        1.1015067438       39.9752518360  SOLV      3359            0.0000000000
     10028      3316  TIP3      OH2            25.6110564810        0.6919967438       43.5109518360  SOLV      3360            0.0000000000
     10029      3316  TIP3      H1             26.4853964810        1.0804267438       43.4813818360  SOLV      3360            0.0000000000
     10030      3316  TIP3      H2             25.4751364810        0.4767767438       44.4336718360  SOLV      3360            0.0000000000
     10031      3317  TIP3      OH2            31.1678964810        0.7219767438       45.1601218360  SOLV      3361            0.0000000000
     10032      3317  TIP3      H1             31.2440564810        0.8171367438       44.2107218360  SOLV      3361            0.0000000000
     10033      3317  TIP3      H2             30.8928164810       -0.1857332562       45.2890318360  SOLV      3361            0.0000000000
     10034      3318  TIP3      OH2            32.5211564810        0.7477567438       40.8526218360  SOLV      3362            0.0000000000
     10035      3318  TIP3      H1             31.8182664810        1.3626767438       40.6427618360  SOLV      3362            0.0000000000
     10036      3318  TIP3      H2             32.0762964810       -0.0895732562       40.9837118360  SOLV      3362            0.0000000000
     10037      3319  TIP3      OH2            19.7690864810       16.5113167438       40.3987618360  SOLV      3363            0.0000000000
     10038      3319  TIP3      H1             19.0840764810       16.4732067438       39.7312718360  SOLV      3363            0.0000000000
     10039      3319  TIP3      H2             19.7728064810       17.4240767438       40.6869718360  SOLV      3363            0.0000000000
     10040      3320  TIP3      OH2            21.7290464810        2.4792467438       37.9436618360  SOLV      3364            0.0000000000
     10041      3320  TIP3      H1             22.2203864810        1.8494867438       37.4162118360  SOLV      3364            0.0000000000
     10042      3320  TIP3      H2             22.3526764810        2.7751867438       38.6067818360  SOLV      3364            0.0000000000
     10043      3321  TIP3      OH2            26.7550564810        2.7723967438       40.4007118360  SOLV      3365            0.0000000000
     10044      3321  TIP3      H1             26.9331864810        2.1257167438       41.0835718360  SOLV      3365            0.0000000000
     10045      3321  TIP3      H2             26.7016764810        3.6061667438       40.8678218360  SOLV      3365            0.0000000000
     10046      3322  TIP3      OH2            28.6334364810       17.7208067438       38.7963818360  SOLV      3366            0.0000000000
     10047      3322  TIP3      H1             29.4994564810       18.0875467438       38.6182018360  SOLV      3366            0.0000000000
     10048      3322  TIP3      H2             28.3867164810       17.2816067438       37.9824618360  SOLV      3366            0.0000000000
     10049      3323  TIP3      OH2            35.3423964810       17.2838367438       41.4754918360  SOLV      3367            0.0000000000
     10050      3323  TIP3      H1             35.1481064810       16.5360467438       40.9104518360  SOLV      3367            0.0000000000
     10051      3323  TIP3      H2             35.3034064810       18.0418467438       40.8922818360  SOLV      3367            0.0000000000
     10052      3324  TIP3      OH2            21.5872064810       17.4313967438       37.4239718360  SOLV      3368            0.0000000000
     10053      3324  TIP3      H1             21.3196664810       17.7176867438       38.2972818360  SOLV      3368            0.0000000000
     10054      3324  TIP3      H2             22.3584664810       16.8853167438       37.5762218360  SOLV      3368            0.0000000000
     10055      3325  TIP3      OH2            48.6100564810        9.9215167438       43.6563918360  SOLV      3369            0.0000000000
     10056      3325  TIP3      H1             48.6991664810       10.8653367438       43.5241018360  SOLV      3369            0.0000000000
     10057      3325  TIP3      H2             47.9718164810        9.6461567438       42.9983318360  SOLV      3369            0.0000000000
     10058      3326  TIP3      OH2            47.5431864810        9.1765867438       47.0752118360  SOLV      3370            0.0000000000
     10059      3326  TIP3      H1             47.5049364810        8.5302167438       47.7801718360  SOLV      3370            0.0000000000
     10060      3326  TIP3      H2             47.2208364810        8.7100267438       46.3040818360  SOLV      3370            0.0000000000
     10061      3327  TIP3      OH2            39.9116864810        8.7907967438       48.6682018360  SOLV      3371            0.0000000000
     10062      3327  TIP3      H1             39.9528964810        8.1651267438       49.3914418360  SOLV      3371            0.0000000000
     10063      3327  TIP3      H2             40.6144564810        9.4146567438       48.8502418360  SOLV      3371            0.0000000000
     10064      3328  TIP3      OH2            40.8349964810       13.2406867438       47.2031118360  SOLV      3372            0.0000000000
     10065      3328  TIP3      H1             40.4655164810       12.4387367438       46.8335418360  SOLV      3372            0.0000000000
     10066      3328  TIP3      H2             41.7761064810       13.0721767438       47.2494518360  SOLV      3372            0.0000000000
     10067      3329  TIP3      OH2            37.4450464810        6.9009467438       42.5959918360  SOLV      3373            0.0000000000
     10068      3329  TIP3      H1             36.9973864810        7.7468167438       42.5776418360  SOLV      3373            0.0000000000
     10069      3329  TIP3      H2             36.8841664810        6.3213667438       42.0805018360  SOLV      3373            0.0000000000
     10070      3330  TIP3      OH2            38.1556564810        9.0629067438       44.7217918360  SOLV      3374            0.0000000000
     10071      3330  TIP3      H1             38.3690064810        8.2930667438       45.2490918360  SOLV      3374            0.0000000000
     10072      3330  TIP3      H2             38.8934164810        9.1525767438       44.1185518360  SOLV      3374            0.0000000000
     10073      3331  TIP3      OH2            48.3607564810       17.2197967438       45.5887618360  SOLV      3375            0.0000000000
     10074      3331  TIP3      H1             48.9803964810       16.5432667438       45.3156818360  SOLV      3375            0.0000000000
     10075      3331  TIP3      H2             48.1524964810       17.0018767438       46.4972518360  SOLV      3375            0.0000000000
     10076      3332  TIP3      OH2            45.9326264810       11.6087267438       47.4813118360  SOLV      3376            0.0000000000
     10077      3332  TIP3      H1             46.2364164810       10.9228667438       46.8867218360  SOLV      3376            0.0000000000
     10078      3332  TIP3      H2             46.6540264810       11.7275967438       48.0991118360  SOLV      3376            0.0000000000
     10079      3333  TIP3      OH2            38.8483064810        6.5011867438       45.8434118360  SOLV      3379            0.0000000000
     10080      3333  TIP3      H1             39.5019664810        5.9513567438       46.2754218360  SOLV      3379            0.0000000000
     10081      3333  TIP3      H2             38.8722364810        6.2270867438       44.9266118360  SOLV      3379            0.0000000000
     10082      3334  TIP3      OH2            44.0047564810        8.0513167438       45.0585618360  SOLV      3380            0.0000000000
     10083      3334  TIP3      H1             44.6208564810        7.5248567438       45.5679618360  SOLV      3380            0.0000000000
     10084      3334  TIP3      H2             43.4186364810        7.4111867438       44.6549218360  SOLV      3380            0.0000000000
     10085      3335  TIP3      OH2            41.0383464810        3.0224467438       49.1553518360  SOLV      3381            0.0000000000
     10086      3335  TIP3      H1             40.8195164810        3.5525067438       48.3889518360  SOLV      3381            0.0000000000
     10087      3335  TIP3      H2             40.3704364810        3.2489967438       49.8024918360  SOLV      3381            0.0000000000
     10088      3336  TIP3      OH2            48.4073264810       12.5225567438       42.6992618360  SOLV      3382            0.0000000000
     10089      3336  TIP3      H1             48.1118364810       12.1997867438       41.8479518360  SOLV      3382            0.0000000000
     10090      3336  TIP3      H2             48.0831064810       13.4222267438       42.7405218360  SOLV      3382            0.0000000000
     10091      3337  TIP3      OH2            43.6074864810       10.6980167438       49.4427218360  SOLV      3383            0.0000000000
     10092      3337  TIP3      H1             42.8673964810       11.2961667438       49.5462418360  SOLV      3383            0.0000000000
     10093      3337  TIP3      H2             44.3214364810       11.2519767438       49.1270818360  SOLV      3383            0.0000000000
     10094      3338  TIP3      OH2            40.6320764810        4.9146267438       47.1075718360  SOLV      3384            0.0000000000
     10095      3338  TIP3      H1             41.2457064810        5.5473867438       47.4808118360  SOLV      3384            0.0000000000
     10096      3338  TIP3      H2             41.1441464810        4.4421267438       46.4512618360  SOLV      3384            0.0000000000
     10097      3339  TIP3      OH2            38.1360064810       12.3331067438       41.0118018360  SOLV      3385            0.0000000000
     10098      3339  TIP3      H1             37.8640964810       12.5622067438       40.1230918360  SOLV      3385            0.0000000000
     10099      3339  TIP3      H2             38.1815764810       13.1709867438       41.4723318360  SOLV      3385            0.0000000000
     10100      3340  TIP3      OH2            47.3313064810        9.1655167438       41.1084218360  SOLV      3387            0.0000000000
     10101      3340  TIP3      H1             46.6198564810        9.7004867438       40.7564718360  SOLV      3387            0.0000000000
     10102      3340  TIP3      H2             48.0222664810        9.2207267438       40.4483118360  SOLV      3387            0.0000000000
     10103      3341  TIP3      OH2            47.3852264810        7.6229467438       38.1469218360  SOLV      3388            0.0000000000
     10104      3341  TIP3      H1             48.0862164810        7.6456367438       38.7983218360  SOLV      3388            0.0000000000
     10105      3341  TIP3      H2             47.6875164810        6.9949167438       37.4908518360  SOLV      3388            0.0000000000
     10106      3342  TIP3      OH2            42.3824464810       10.0054667438       43.9425118360  SOLV      3389            0.0000000000
     10107      3342  TIP3      H1             42.0519664810        9.6348067438       43.1242118360  SOLV      3389            0.0000000000
     10108      3342  TIP3      H2             42.9708564810        9.3348667438       44.2893418360  SOLV      3389            0.0000000000
     10109      3343  TIP3      OH2            43.7491964810       13.4335267438       46.6237318360  SOLV      3390            0.0000000000
     10110      3343  TIP3      H1             43.6543264810       12.8548367438       45.8671918360  SOLV      3390            0.0000000000
     10111      3343  TIP3      H2             44.4785564810       13.0620967438       47.1200118360  SOLV      3390            0.0000000000
     10112      3344  TIP3      OH2            42.7489964810        8.7740267438       47.5760118360  SOLV      3391            0.0000000000
     10113      3344  TIP3      H1             43.3142464810        8.8954467438       46.8131318360  SOLV      3391            0.0000000000
     10114      3344  TIP3      H2             43.0678864810        9.4115267438       48.2148618360  SOLV      3391            0.0000000000
     10115      3345  TIP3      OH2            49.0582164810       14.2772167438       48.3100618360  SOLV      3392            0.0000000000
     10116      3345  TIP3      H1             48.8178764810       14.9395267438       48.9579818360  SOLV      3392            0.0000000000
     10117      3345  TIP3      H2             48.8600364810       13.4427367438       48.7350218360  SOLV      3392            0.0000000000
     10118      3346  TIP3      OH2            49.6080264810        8.5371367438       39.7451318360  SOLV      3393            0.0000000000
     10119      3346  TIP3      H1             50.1875764810        8.6871667438       40.4920218360  SOLV      3393            0.0000000000
     10120      3346  TIP3      H2             50.0220264810        9.0078767438       39.0217718360  SOLV      3393            0.0000000000
     10121      3347  TIP3      OH2            47.3345164810       15.2739867438       43.1804418360  SOLV      3394            0.0000000000
     10122      3347  TIP3      H1             47.8082764810       15.5696167438       43.9578618360  SOLV      3394            0.0000000000
     10123      3347  TIP3      H2             46.7714464810       16.0121467438       42.9474018360  SOLV      3394            0.0000000000
     10124      3348  TIP3      OH2            41.3727164810        9.0748967438       41.5317918360  SOLV      3395            0.0000000000
     10125      3348  TIP3      H1             41.0808464810        9.8430667438       41.0409218360  SOLV      3395            0.0000000000
     10126      3348  TIP3      H2             40.6982364810        8.4155167438       41.3689318360  SOLV      3395            0.0000000000
     10127      3349  TIP3      OH2            37.2159964810       14.2181967438       47.2307918360  SOLV      3396            0.0000000000
     10128      3349  TIP3      H1             38.1620564810       14.0738967438       47.2117418360  SOLV      3396            0.0000000000
     10129      3349  TIP3      H2             37.1036264810       15.0024767438       47.7679118360  SOLV      3396            0.0000000000
     10130      3350  TIP3      OH2            46.8068264810       18.2304567438       41.5953618360  SOLV      3397            0.0000000000
     10131      3350  TIP3      H1             46.7314264810       18.1091767438       40.6488818360  SOLV      3397            0.0000000000
     10132      3350  TIP3      H2             46.8396964810       19.1797267438       41.7138218360  SOLV      3397            0.0000000000
     10133      3351  TIP3      OH2            40.4602064810       17.0191567438       43.3762618360  SOLV      3398            0.0000000000
     10134      3351  TIP3      H1             40.6122464810       16.6711967438       44.2549118360  SOLV      3398            0.0000000000
     10135      3351  TIP3      H2             39.6092464810       16.6628867438       43.1209818360  SOLV      3398            0.0000000000
     10136      3352  TIP3      OH2            49.5772364810       17.3101867438       41.3468218360  SOLV      3399            0.0000000000
     10137      3352  TIP3      H1             48.6422164810       17.4103767438       41.5255218360  SOLV      3399            0.0000000000
     10138      3352  TIP3      H2             49.8574264810       16.6007867438       41.9251418360  SOLV      3399            0.0000000000
     10139      3353  TIP3      OH2            46.6580864810        3.4457867438       38.0452518360  SOLV      3401            0.0000000000
     10140      3353  TIP3      H1             46.4045664810        3.4649467438       38.9680618360  SOLV      3401            0.0000000000
     10141      3353  TIP3      H2             46.4012964810        2.5743267438       37.7438718360  SOLV      3401            0.0000000000
     10142      3354  TIP3      OH2            42.4245864810        6.1968567438       48.4804918360  SOLV      3402            0.0000000000
     10143      3354  TIP3      H1             41.7827964810        6.1565867438       49.1895018360  SOLV      3402            0.0000000000
     10144      3354  TIP3      H2             42.4617864810        7.1233267438       48.2427918360  SOLV      3402            0.0000000000
     10145      3355  TIP3      OH2            42.4214964810        6.4178667438       43.3924918360  SOLV      3403            0.0000000000
     10146      3355  TIP3      H1             41.5287864810        6.0774767438       43.3338718360  SOLV      3403            0.0000000000
     10147      3355  TIP3      H2             42.8721564810        6.0409567438       42.6368118360  SOLV      3403            0.0000000000
     10148      3356  TIP3      OH2            47.9570464810        6.8338967438       42.2095718360  SOLV      3404            0.0000000000
     10149      3356  TIP3      H1             47.5480764810        7.6487567438       41.9180518360  SOLV      3404            0.0000000000
     10150      3356  TIP3      H2             48.6776664810        6.6939067438       41.5952818360  SOLV      3404            0.0000000000
     10151      3357  TIP3      OH2            43.5403764810        3.8914367438       37.1462918360  SOLV      3406            0.0000000000
     10152      3357  TIP3      H1             43.1094464810        3.4464467438       37.8760318360  SOLV      3406            0.0000000000
     10153      3357  TIP3      H2             42.8222464810        4.2630667438       36.6340418360  SOLV      3406            0.0000000000
     10154      3358  TIP3      OH2            36.7827164810        3.6333867438       44.1981618360  SOLV      3407            0.0000000000
     10155      3358  TIP3      H1             37.4134864810        3.6045967438       44.9175518360  SOLV      3407            0.0000000000
     10156      3358  TIP3      H2             37.2321464810        3.2082567438       43.4677518360  SOLV      3407            0.0000000000
     10157      3359  TIP3      OH2            38.0569264810        4.3795867438       39.6222018360  SOLV      3408            0.0000000000
     10158      3359  TIP3      H1             38.5310964810        4.9705767438       39.0372918360  SOLV      3408            0.0000000000
     10159      3359  TIP3      H2             37.3395664810        4.9098767438       39.9692118360  SOLV      3408            0.0000000000
     10160      3360  TIP3      OH2            48.2257364810        7.9180667438       49.6947818360  SOLV      3409            0.0000000000
     10161      3360  TIP3      H1             48.5492164810        7.2870367438       49.0518318360  SOLV      3409            0.0000000000
     10162      3360  TIP3      H2             47.7856664810        7.3832867438       50.3555218360  SOLV      3409            0.0000000000
     10163      3361  TIP3      OH2            39.8313664810        5.4742467438       43.3056618360  SOLV      3411            0.0000000000
     10164      3361  TIP3      H1             38.9421664810        5.5737967438       42.9656218360  SOLV      3411            0.0000000000
     10165      3361  TIP3      H2             40.1278564810        4.6325467438       42.9594518360  SOLV      3411            0.0000000000
     10166      3362  TIP3      OH2            43.4845464810        5.4745067438       40.9621218360  SOLV      3412            0.0000000000
     10167      3362  TIP3      H1             44.4160964810        5.6035067438       41.1404318360  SOLV      3412            0.0000000000
     10168      3362  TIP3      H2             43.2695764810        6.1439367438       40.3125918360  SOLV      3412            0.0000000000
     10169      3363  TIP3      OH2            42.1585664810        6.6687267438       38.5287318360  SOLV      3414            0.0000000000
     10170      3363  TIP3      H1             41.6160764810        6.2891067438       37.8374918360  SOLV      3414            0.0000000000
     10171      3363  TIP3      H2             42.9920564810        6.8631967438       38.1001418360  SOLV      3414            0.0000000000
     10172      3364  TIP3      OH2            41.3249664810        2.7695267438       42.7843418360  SOLV      3416            0.0000000000
     10173      3364  TIP3      H1             41.0079164810        1.8670567438       42.7488818360  SOLV      3416            0.0000000000
     10174      3364  TIP3      H2             42.1063764810        2.7712667438       42.2315018360  SOLV      3416            0.0000000000
     10175      3365  TIP3      OH2            45.4938464810       11.2342967438       40.4645418360  SOLV      3418            0.0000000000
     10176      3365  TIP3      H1             44.7489464810       10.7268267438       40.1423318360  SOLV      3418            0.0000000000
     10177      3365  TIP3      H2             45.3595664810       11.2830967438       41.4110218360  SOLV      3418            0.0000000000
     10178      3366  TIP3      OH2            49.3915264810        4.0482867438       38.6638018360  SOLV      3419            0.0000000000
     10179      3366  TIP3      H1             48.4529464810        4.1598467438       38.5126818360  SOLV      3419            0.0000000000
     10180      3366  TIP3      H2             49.6887364810        4.9049767438       38.9703718360  SOLV      3419            0.0000000000
     10181      3367  TIP3      OH2            40.6186764810       10.5292967438       46.2343318360  SOLV      3420            0.0000000000
     10182      3367  TIP3      H1             41.3633964810       10.5268667438       45.6329818360  SOLV      3420            0.0000000000
     10183      3367  TIP3      H2             40.6963364810        9.7056767438       46.7158418360  SOLV      3420            0.0000000000
     10184      3368  TIP3      OH2            47.6192564810       12.6927267438       39.4900018360  SOLV      3421            0.0000000000
     10185      3368  TIP3      H1             47.3240964810       13.5195167438       39.8714818360  SOLV      3421            0.0000000000
     10186      3368  TIP3      H2             46.9162564810       12.0734167438       39.6861418360  SOLV      3421            0.0000000000
     10187      3369  TIP3      OH2            42.9936164810       14.0471167438       43.6384818360  SOLV      3422            0.0000000000
     10188      3369  TIP3      H1             43.5208364810       14.8205567438       43.4383618360  SOLV      3422            0.0000000000
     10189      3369  TIP3      H2             42.1134664810       14.2720367438       43.3368818360  SOLV      3422            0.0000000000
     10190      3370  TIP3      OH2            38.7483864810        8.9095267438       38.2257218360  SOLV      3423            0.0000000000
     10191      3370  TIP3      H1             39.3643764810        9.5362467438       38.6052018360  SOLV      3423            0.0000000000
     10192      3370  TIP3      H2             37.8866464810        9.2255067438       38.4973718360  SOLV      3423            0.0000000000
     10193      3371  TIP3      OH2            44.4208464810       11.7101067438       43.2149118360  SOLV      3424            0.0000000000
     10194      3371  TIP3      H1             44.1798464810       12.6355467438       43.2564418360  SOLV      3424            0.0000000000
     10195      3371  TIP3      H2             43.6802064810       11.2512367438       43.6113018360  SOLV      3424            0.0000000000
     10196      3372  TIP3      OH2            44.9355064810       15.8594667438       49.5300218360  SOLV      3425            0.0000000000
     10197      3372  TIP3      H1             45.2979764810       16.7140267438       49.2964618360  SOLV      3425            0.0000000000
     10198      3372  TIP3      H2             45.4670264810       15.5676267438       50.2706518360  SOLV      3425            0.0000000000
     10199      3373  TIP3      OH2            43.1039264810       16.7318667438       42.7601318360  SOLV      3426            0.0000000000
     10200      3373  TIP3      H1             42.1539764810       16.8376067438       42.8114618360  SOLV      3426            0.0000000000
     10201      3373  TIP3      H2             43.4557364810       17.5526067438       43.1048818360  SOLV      3426            0.0000000000
     10202      3374  TIP3      OH2            48.4795864810       11.9585367438       49.2305818360  SOLV      3427            0.0000000000
     10203      3374  TIP3      H1             48.0537164810       11.7307067438       50.0569818360  SOLV      3427            0.0000000000
     10204      3374  TIP3      H2             49.0601664810       11.2197167438       49.0481118360  SOLV      3427            0.0000000000
     10205      3375  TIP3      OH2            38.9117964810       15.5476967438       49.5422618360  SOLV      3428            0.0000000000
     10206      3375  TIP3      H1             39.1288264810       14.6159367438       49.5112318360  SOLV      3428            0.0000000000
     10207      3375  TIP3      H2             39.1581464810       15.8221967438       50.4255418360  SOLV      3428            0.0000000000
     10208      3376  TIP3      OH2            44.7732564810       13.9991967438       36.7514818360  SOLV      3429            0.0000000000
     10209      3376  TIP3      H1             45.0122364810       13.2510067438       36.2043718360  SOLV      3429            0.0000000000
     10210      3376  TIP3      H2             44.5043864810       13.6113667438       37.5842618360  SOLV      3429            0.0000000000
     10211      3377  TIP3      OH2            43.7103164810       13.5695767438       39.2077418360  SOLV      3430            0.0000000000
     10212      3377  TIP3      H1             43.8571164810       13.0495567438       39.9978318360  SOLV      3430            0.0000000000
     10213      3377  TIP3      H2             43.7074864810       14.4763367438       39.5143318360  SOLV      3430            0.0000000000
     10214      3378  TIP3      OH2            40.1634264810       10.8219067438       39.7182818360  SOLV      3431            0.0000000000
     10215      3378  TIP3      H1             39.4773564810       11.1741567438       40.2852518360  SOLV      3431            0.0000000000
     10216      3378  TIP3      H2             40.6862164810       11.5848667438       39.4717118360  SOLV      3431            0.0000000000
     10217      3379  TIP3      OH2            46.4480364810       15.2669367438       39.9571618360  SOLV      3433            0.0000000000
     10218      3379  TIP3      H1             45.6316464810       15.7639067438       40.0095918360  SOLV      3433            0.0000000000
     10219      3379  TIP3      H2             46.9776664810       15.7422867438       39.3170418360  SOLV      3433            0.0000000000
     10220      3380  TIP3      OH2            43.7863464810       16.3106567438       39.9388518360  SOLV      3436            0.0000000000
     10221      3380  TIP3      H1             43.9472164810       17.1104067438       39.4381118360  SOLV      3436            0.0000000000
     10222      3380  TIP3      H2             43.5891264810       16.6172567438       40.8239118360  SOLV      3436            0.0000000000
     10223      3381  TIP3      OH2            42.5207864810        3.0085767438       39.5546118360  SOLV      3437            0.0000000000
     10224      3381  TIP3      H1             42.4372664810        3.8968867438       39.9012518360  SOLV      3437            0.0000000000
     10225      3381  TIP3      H2             43.4108164810        2.7432467438       39.7862918360  SOLV      3437            0.0000000000
     10226      3382  TIP3      OH2            40.7793164810       13.4357967438       38.6150618360  SOLV      3438            0.0000000000
     10227      3382  TIP3      H1             41.3714664810       14.1352767438       38.8913018360  SOLV      3438            0.0000000000
     10228      3382  TIP3      H2             41.2386164810       13.0027467438       37.8955218360  SOLV      3438            0.0000000000
     10229      3383  TIP3      OH2            39.0952364810        6.1000967438       37.7310018360  SOLV      3439            0.0000000000
     10230      3383  TIP3      H1             39.0504964810        7.0394067438       37.9097018360  SOLV      3439            0.0000000000
     10231      3383  TIP3      H2             38.2075564810        5.8645867438       37.4612118360  SOLV      3439            0.0000000000
     10232      3384  TIP3      OH2            39.9034364810        0.8817567438       46.4041018360  SOLV      3440            0.0000000000
     10233      3384  TIP3      H1             39.6744164810        0.9410067438       45.4766018360  SOLV      3440            0.0000000000
     10234      3384  TIP3      H2             39.4607764810        0.0903067438       46.7105118360  SOLV      3440            0.0000000000
     10235      3385  TIP3      OH2            38.8337664810       14.8224667438       42.5646818360  SOLV      3441            0.0000000000
     10236      3385  TIP3      H1             38.0016264810       15.2947367438       42.5918218360  SOLV      3441            0.0000000000
     10237      3385  TIP3      H2             39.3795964810       15.3322267438       41.9659918360  SOLV      3441            0.0000000000
     10238      3386  TIP3      OH2            46.8114364810       15.8623367438       36.8900818360  SOLV      3442            0.0000000000
     10239      3386  TIP3      H1             46.1675364810       15.2311967438       37.2114518360  SOLV      3442            0.0000000000
     10240      3386  TIP3      H2             47.5732664810       15.3311367438       36.6584318360  SOLV      3442            0.0000000000
     10241      3387  TIP3      OH2            42.3704564810       11.5888167438       36.9813718360  SOLV      3443            0.0000000000
     10242      3387  TIP3      H1             42.4348664810       10.7947767438       37.5120118360  SOLV      3443            0.0000000000
     10243      3387  TIP3      H2             43.0233764810       11.4700967438       36.2915718360  SOLV      3443            0.0000000000
     10244      3388  TIP3      OH2            47.7227964810       12.6359867438       36.7171718360  SOLV      3444            0.0000000000
     10245      3388  TIP3      H1             47.4542064810       12.8161967438       37.6180618360  SOLV      3444            0.0000000000
     10246      3388  TIP3      H2             47.5163564810       11.7106067438       36.5857518360  SOLV      3444            0.0000000000
     10247      3389  TIP3      OH2            43.5198364810        9.5614367438       39.2871718360  SOLV      3445            0.0000000000
     10248      3389  TIP3      H1             43.0600364810        9.0772667438       39.9730218360  SOLV      3445            0.0000000000
     10249      3389  TIP3      H2             43.7747064810        8.8929767438       38.6512218360  SOLV      3445            0.0000000000
     10250      3390  TIP3      OH2            44.5908764810        7.8046167438       37.5494918360  SOLV      3446            0.0000000000
     10251      3390  TIP3      H1             44.4103764810        7.6497367438       36.6223218360  SOLV      3446            0.0000000000
     10252      3390  TIP3      H2             45.5409264810        7.9124867438       37.5942818360  SOLV      3446            0.0000000000
     10253      3391  TIP3      OH2            44.4880464810       18.4949867438       38.5508518360  SOLV      3447            0.0000000000
     10254      3391  TIP3      H1             45.4211164810       18.6528567438       38.6946918360  SOLV      3447            0.0000000000
     10255      3391  TIP3      H2             44.2239264810       19.1702867438       37.9260018360  SOLV      3447            0.0000000000
     10256      3392  TIP3      OH2            38.0565364810       13.1313667438       38.0336618360  SOLV      3448            0.0000000000
     10257      3392  TIP3      H1             38.9704564810       13.2102567438       38.3070518360  SOLV      3448            0.0000000000
     10258      3392  TIP3      H2             38.0638464810       12.4443267438       37.3672218360  SOLV      3448            0.0000000000
     10259      3393  TIP3      OH2            36.7055964810       18.5242167438       43.1110518360  SOLV      3449            0.0000000000
     10260      3393  TIP3      H1             36.0583064810       18.0623867438       42.5781718360  SOLV      3449            0.0000000000
     10261      3393  TIP3      H2             37.0600564810       17.8525467438       43.6936718360  SOLV      3449            0.0000000000
     10262      3394  TIP3      OH2            37.5755164810       16.6049167438       44.9156718360  SOLV      3450            0.0000000000
     10263      3394  TIP3      H1             37.2411964810       15.7246467438       45.0876918360  SOLV      3450            0.0000000000
     10264      3394  TIP3      H2             37.7977564810       16.9504167438       45.7802318360  SOLV      3450            0.0000000000
     10265      3395  TIP3      OH2            37.6554664810        9.6804567438       47.3671618360  SOLV      3451            0.0000000000
     10266      3395  TIP3      H1             37.8397564810        9.5986267438       46.4314518360  SOLV      3451            0.0000000000
     10267      3395  TIP3      H2             38.5047564810        9.5561567438       47.7908018360  SOLV      3451            0.0000000000
     10268      3396  TIP3      OH2            38.4741964810        3.2631167438       46.3993318360  SOLV      3452            0.0000000000
     10269      3396  TIP3      H1             38.9193564810        2.4713667438       46.7013018360  SOLV      3452            0.0000000000
     10270      3396  TIP3      H2             38.9404964810        3.9796367438       46.8298918360  SOLV      3452            0.0000000000
     10271      3397  TIP3      OH2            36.7782264810        6.2624167438       47.4683518360  SOLV      3453            0.0000000000
     10272      3397  TIP3      H1             37.2702064810        6.0414667438       46.6775518360  SOLV      3453            0.0000000000
     10273      3397  TIP3      H2             37.1403164810        7.1027567438       47.7493018360  SOLV      3453            0.0000000000
     10274      3398  TIP3      OH2            37.0918764810        2.5203267438       41.5225918360  SOLV      3454            0.0000000000
     10275      3398  TIP3      H1             36.1667164810        2.7289867438       41.3931418360  SOLV      3454            0.0000000000
     10276      3398  TIP3      H2             37.5458664810        3.0044067438       40.8328218360  SOLV      3454            0.0000000000
     10277      3399  TIP3      OH2            37.0554164810        1.2582267438       49.8668418360  SOLV      3455            0.0000000000
     10278      3399  TIP3      H1             36.3904664810        1.0122567438       50.5099318360  SOLV      3455            0.0000000000
     10279      3399  TIP3      H2             36.6125464810        1.8802667438       49.2896418360  SOLV      3455            0.0000000000
     10280      3400  TIP3      OH2            42.0705664810       18.2645367438       49.3470718360  SOLV      3456            0.0000000000
     10281      3400  TIP3      H1             41.2057864810       18.3363867438       49.7510818360  SOLV      3456            0.0000000000
     10282      3400  TIP3      H2             42.0154664810       18.8112667438       48.5633218360  SOLV      3456            0.0000000000
     10283      3401  TIP3      OH2            46.7811264810       18.1524267438       48.5226718360  SOLV      3457            0.0000000000
     10284      3401  TIP3      H1             46.3245264810       18.6813967438       47.8685118360  SOLV      3457            0.0000000000
     10285      3401  TIP3      H2             46.9439264810       18.7555667438       49.2479018360  SOLV      3457            0.0000000000
     10286      3402  TIP3      OH2            49.1087564810       17.0303867438       49.4677018360  SOLV      3458            0.0000000000
     10287      3402  TIP3      H1             48.2041264810       17.1954067438       49.2019118360  SOLV      3458            0.0000000000
     10288      3402  TIP3      H2             49.5376164810       17.8836067438       49.4020418360  SOLV      3458            0.0000000000
     10289      3403  TIP3      OH2            39.0181164810       17.2873967438       47.2275318360  SOLV      3459            0.0000000000
     10290      3403  TIP3      H1             38.9997164810       16.8619067438       48.0847618360  SOLV      3459            0.0000000000
     10291      3403  TIP3      H2             39.8229064810       16.9688967438       46.8187518360  SOLV      3459            0.0000000000
     10292      3404  TIP3      OH2            41.1594264810       15.9972667438       45.8825218360  SOLV      3460            0.0000000000
     10293      3404  TIP3      H1             40.9404964810       15.0810067438       46.0521218360  SOLV      3460            0.0000000000
     10294      3404  TIP3      H2             41.9836464810       16.1373067438       46.3486618360  SOLV      3460            0.0000000000
     10295      3405  TIP3      OH2            43.6966764810       16.4671967438       46.7313218360  SOLV      3461            0.0000000000
     10296      3405  TIP3      H1             43.9092464810       15.5790967438       46.4444118360  SOLV      3461            0.0000000000
     10297      3405  TIP3      H2             43.7611864810       16.4329667438       47.6857218360  SOLV      3461            0.0000000000
     10298      3406  TIP3      OH2            39.5317964810        0.7652867438       43.6976418360  SOLV      3463            0.0000000000
     10299      3406  TIP3      H1             38.7547764810        0.5307767438       43.1902318360  SOLV      3463            0.0000000000
     10300      3406  TIP3      H2             40.0621564810       -0.0315032562       43.7064418360  SOLV      3463            0.0000000000
     10301      3407  TIP3      OH2            38.3681364810        0.5630967438       39.5012518360  SOLV      3464            0.0000000000
     10302      3407  TIP3      H1             38.8072064810        1.1741467438       38.9096018360  SOLV      3464            0.0000000000
     10303      3407  TIP3      H2             37.7343764810        1.1015067438       39.9752518360  SOLV      3464            0.0000000000
     10304      3408  TIP3      OH2            38.2690864810       16.5113167438       40.3987618360  SOLV      3467            0.0000000000
     10305      3408  TIP3      H1             37.5840764810       16.4732067438       39.7312718360  SOLV      3467            0.0000000000
     10306      3408  TIP3      H2             38.2728064810       17.4240767438       40.6869718360  SOLV      3467            0.0000000000
     10307      3409  TIP3      OH2            40.2290464810        2.4792467438       37.9436618360  SOLV      3468            0.0000000000
     10308      3409  TIP3      H1             40.7203864810        1.8494867438       37.4162118360  SOLV      3468            0.0000000000
     10309      3409  TIP3      H2             40.8526764810        2.7751867438       38.6067818360  SOLV      3468            0.0000000000
     10310      3410  TIP3      OH2            47.1334364810       17.7208067438       38.7963818360  SOLV      3470            0.0000000000
     10311      3410  TIP3      H1             47.9994564810       18.0875467438       38.6182018360  SOLV      3470            0.0000000000
     10312      3410  TIP3      H2             46.8867164810       17.2816067438       37.9824618360  SOLV      3470            0.0000000000
     10313      3411  TIP3      OH2            40.0872064810       17.4313967438       37.4239718360  SOLV      3471            0.0000000000
     10314      3411  TIP3      H1             39.8196664810       17.7176867438       38.2972818360  SOLV      3471            0.0000000000
     10315      3411  TIP3      H2             40.8584664810       16.8853167438       37.5762218360  SOLV      3471            0.0000000000
     10316      3412  TIP3      OH2            11.6100564810       28.4215167438       43.6563918360  SOLV      3472            0.0000000000
     10317      3412  TIP3      H1             11.6991664810       29.3653367438       43.5241018360  SOLV      3472            0.0000000000
     10318      3412  TIP3      H2             10.9718164810       28.1461567438       42.9983318360  SOLV      3472            0.0000000000
     10319      3413  TIP3      OH2            10.5431864810       27.6765867438       47.0752118360  SOLV      3473            0.0000000000
     10320      3413  TIP3      H1             10.5049364810       27.0302167438       47.7801718360  SOLV      3473            0.0000000000
     10321      3413  TIP3      H2             10.2208364810       27.2100267438       46.3040818360  SOLV      3473            0.0000000000
     10322      3414  TIP3      OH2             2.9116864810       27.2907967438       48.6682018360  SOLV      3474            0.0000000000
     10323      3414  TIP3      H1              2.9528964810       26.6651267438       49.3914418360  SOLV      3474            0.0000000000
     10324      3414  TIP3      H2              3.6144564810       27.9146567438       48.8502418360  SOLV      3474            0.0000000000
     10325      3415  TIP3      OH2            14.2492064810       30.6156267438       45.3767218360  SOLV      3475            0.0000000000
     10326      3415  TIP3      H1             13.8084764810       29.8952267438       45.8272818360  SOLV      3475            0.0000000000
     10327      3415  TIP3      H2             14.2361764810       31.3363467438       46.0064918360  SOLV      3475            0.0000000000
     10328      3416  TIP3      OH2             3.8349964810       31.7406867438       47.2031118360  SOLV      3476            0.0000000000
     10329      3416  TIP3      H1              3.4655164810       30.9387367438       46.8335418360  SOLV      3476            0.0000000000
     10330      3416  TIP3      H2              4.7761064810       31.5721767438       47.2494518360  SOLV      3476            0.0000000000
     10331      3417  TIP3      OH2             0.4450464810       25.4009467438       42.5959918360  SOLV      3477            0.0000000000
     10332      3417  TIP3      H1             -0.0026135190       26.2468167438       42.5776418360  SOLV      3477            0.0000000000
     10333      3417  TIP3      H2             -0.1158335190       24.8213667438       42.0805018360  SOLV      3477            0.0000000000
     10334      3418  TIP3      OH2             1.1556564810       27.5629067438       44.7217918360  SOLV      3478            0.0000000000
     10335      3418  TIP3      H1              1.3690064810       26.7930667438       45.2490918360  SOLV      3478            0.0000000000
     10336      3418  TIP3      H2              1.8934164810       27.6525767438       44.1185518360  SOLV      3478            0.0000000000
     10337      3419  TIP3      OH2            11.3607564810       35.7197967438       45.5887618360  SOLV      3479            0.0000000000
     10338      3419  TIP3      H1             11.9803964810       35.0432667438       45.3156818360  SOLV      3479            0.0000000000
     10339      3419  TIP3      H2             11.1524964810       35.5018767438       46.4972518360  SOLV      3479            0.0000000000
     10340      3420  TIP3      OH2             8.9326264810       30.1087267438       47.4813118360  SOLV      3480            0.0000000000
     10341      3420  TIP3      H1              9.2364164810       29.4228667438       46.8867218360  SOLV      3480            0.0000000000
     10342      3420  TIP3      H2              9.6540264810       30.2275967438       48.0991118360  SOLV      3480            0.0000000000
     10343      3421  TIP3      OH2            17.5956064810       21.7102567438       48.3419318360  SOLV      3481            0.0000000000
     10344      3421  TIP3      H1             17.6448264810       22.3203767438       49.0778418360  SOLV      3481            0.0000000000
     10345      3421  TIP3      H2             18.0211164810       22.1713467438       47.6190418360  SOLV      3481            0.0000000000
     10346      3422  TIP3      OH2            12.0733264810       24.5029667438       47.8087918360  SOLV      3482            0.0000000000
     10347      3422  TIP3      H1             12.2159164810       23.5566667438       47.8289518360  SOLV      3482            0.0000000000
     10348      3422  TIP3      H2             11.9672264810       24.7099467438       46.8802818360  SOLV      3482            0.0000000000
     10349      3423  TIP3      OH2             5.2281564810       22.6046067438       45.0812718360  SOLV      3483            0.0000000000
     10350      3423  TIP3      H1              5.2712664810       23.4644567438       44.6629018360  SOLV      3483            0.0000000000
     10351      3423  TIP3      H2              4.7705664810       22.0520767438       44.4475918360  SOLV      3483            0.0000000000
     10352      3424  TIP3      OH2            12.9504264810       22.7351667438       43.4821018360  SOLV      3484            0.0000000000
     10353      3424  TIP3      H1             13.5968564810       22.4064867438       44.1068618360  SOLV      3484            0.0000000000
     10354      3424  TIP3      H2             13.4603664810       23.2530667438       42.8592418360  SOLV      3484            0.0000000000
     10355      3425  TIP3      OH2             1.8483064810       25.0011867438       45.8434118360  SOLV      3485            0.0000000000
     10356      3425  TIP3      H1              2.5019664810       24.4513567438       46.2754218360  SOLV      3485            0.0000000000
     10357      3425  TIP3      H2              1.8722364810       24.7270867438       44.9266118360  SOLV      3485            0.0000000000
     10358      3426  TIP3      OH2             7.0047564810       26.5513167438       45.0585618360  SOLV      3486            0.0000000000
     10359      3426  TIP3      H1              7.6208564810       26.0248567438       45.5679618360  SOLV      3486            0.0000000000
     10360      3426  TIP3      H2              6.4186364810       25.9111867438       44.6549218360  SOLV      3486            0.0000000000
     10361      3427  TIP3      OH2             4.0383464810       21.5224467438       49.1553518360  SOLV      3487            0.0000000000
     10362      3427  TIP3      H1              3.8195164810       22.0525067438       48.3889518360  SOLV      3487            0.0000000000
     10363      3427  TIP3      H2              3.3704364810       21.7489967438       49.8024918360  SOLV      3487            0.0000000000
     10364      3428  TIP3      OH2            11.4073264810       31.0225567438       42.6992618360  SOLV      3488            0.0000000000
     10365      3428  TIP3      H1             11.1118364810       30.6997867438       41.8479518360  SOLV      3488            0.0000000000
     10366      3428  TIP3      H2             11.0831064810       31.9222267438       42.7405218360  SOLV      3488            0.0000000000
     10367      3429  TIP3      OH2             6.6074864810       29.1980167438       49.4427218360  SOLV      3489            0.0000000000
     10368      3429  TIP3      H1              5.8673964810       29.7961667438       49.5462418360  SOLV      3489            0.0000000000
     10369      3429  TIP3      H2              7.3214364810       29.7519767438       49.1270818360  SOLV      3489            0.0000000000
     10370      3430  TIP3      OH2            14.7142664810       22.0260967438       45.4626918360  SOLV      3490            0.0000000000
     10371      3430  TIP3      H1             14.4990664810       21.2604367438       45.9952918360  SOLV      3490            0.0000000000
     10372      3430  TIP3      H2             15.3700064810       22.4985567438       45.9755418360  SOLV      3490            0.0000000000
     10373      3431  TIP3      OH2             3.6320764810       23.4146267438       47.1075718360  SOLV      3491            0.0000000000
     10374      3431  TIP3      H1              4.2457064810       24.0473867438       47.4808118360  SOLV      3491            0.0000000000
     10375      3431  TIP3      H2              4.1441464810       22.9421267438       46.4512618360  SOLV      3491            0.0000000000
     10376      3432  TIP3      OH2             1.1360064810       30.8331067438       41.0118018360  SOLV      3492            0.0000000000
     10377      3432  TIP3      H1              0.8640964810       31.0622067438       40.1230918360  SOLV      3492            0.0000000000
     10378      3432  TIP3      H2              1.1815764810       31.6709867438       41.4723318360  SOLV      3492            0.0000000000
     10379      3433  TIP3      OH2            14.7609764810       32.4546967438       47.7246518360  SOLV      3493            0.0000000000
     10380      3433  TIP3      H1             13.8193464810       32.5130867438       47.8863418360  SOLV      3493            0.0000000000
     10381      3433  TIP3      H2             15.0375864810       33.3607467438       47.5876218360  SOLV      3493            0.0000000000
     10382      3434  TIP3      OH2            15.0616764810       20.7412267438       49.1420418360  SOLV      3494            0.0000000000
     10383      3434  TIP3      H1             14.3255964810       21.3519367438       49.1041718360  SOLV      3494            0.0000000000
     10384      3434  TIP3      H2             15.7450764810       21.1561267438       48.6156818360  SOLV      3494            0.0000000000
     10385      3435  TIP3      OH2             8.0648164810       18.8279567438       46.6078418360  SOLV      3495            0.0000000000
     10386      3435  TIP3      H1              7.9472364810       17.8795567438       46.5536718360  SOLV      3495            0.0000000000
     10387      3435  TIP3      H2              7.2098264810       19.1605667438       46.8809518360  SOLV      3495            0.0000000000
     10388      3436  TIP3      OH2            13.0130964810       34.2360467438       44.3498118360  SOLV      3496            0.0000000000
     10389      3436  TIP3      H1             13.4383264810       33.5288367438       43.8647718360  SOLV      3496            0.0000000000
     10390      3436  TIP3      H2             13.3300964810       35.0373167438       43.9330318360  SOLV      3496            0.0000000000
     10391      3437  TIP3      OH2            14.1727464810       32.1368967438       42.8584718360  SOLV      3497            0.0000000000
     10392      3437  TIP3      H1             13.9152264810       31.4469067438       42.2470618360  SOLV      3497            0.0000000000
     10393      3437  TIP3      H2             14.2438264810       31.6940167438       43.7040618360  SOLV      3497            0.0000000000
     10394      3438  TIP3      OH2            10.3313064810       27.6655167438       41.1084218360  SOLV      3498            0.0000000000
     10395      3438  TIP3      H1              9.6198564810       28.2004867438       40.7564718360  SOLV      3498            0.0000000000
     10396      3438  TIP3      H2             11.0222664810       27.7207267438       40.4483118360  SOLV      3498            0.0000000000
     10397      3439  TIP3      OH2            10.3852264810       26.1229467438       38.1469218360  SOLV      3499            0.0000000000
     10398      3439  TIP3      H1             11.0862164810       26.1456367438       38.7983218360  SOLV      3499            0.0000000000
     10399      3439  TIP3      H2             10.6875164810       25.4949167438       37.4908518360  SOLV      3499            0.0000000000
     10400      3440  TIP3      OH2            17.7006964810       27.0433667438       49.4018618360  SOLV      3500            0.0000000000
     10401      3440  TIP3      H1             17.0481064810       27.7379267438       49.4909518360  SOLV      3500            0.0000000000
     10402      3440  TIP3      H2             18.1657264810       27.2534567438       48.5920218360  SOLV      3500            0.0000000000
     10403      3441  TIP3      OH2            13.7370764810       27.8748467438       42.0600118360  SOLV      3501            0.0000000000
     10404      3441  TIP3      H1             13.0051764810       28.1032167438       42.6330718360  SOLV      3501            0.0000000000
     10405      3441  TIP3      H2             14.1842964810       27.1611167438       42.5147618360  SOLV      3501            0.0000000000
     10406      3442  TIP3      OH2             5.3824464810       28.5054667438       43.9425118360  SOLV      3502            0.0000000000
     10407      3442  TIP3      H1              5.0519664810       28.1348067438       43.1242118360  SOLV      3502            0.0000000000
     10408      3442  TIP3      H2              5.9708564810       27.8348667438       44.2893418360  SOLV      3502            0.0000000000
     10409      3443  TIP3      OH2             6.7491964810       31.9335267438       46.6237318360  SOLV      3503            0.0000000000
     10410      3443  TIP3      H1              6.6543264810       31.3548367438       45.8671918360  SOLV      3503            0.0000000000
     10411      3443  TIP3      H2              7.4785564810       31.5620967438       47.1200118360  SOLV      3503            0.0000000000
     10412      3444  TIP3      OH2             5.7489964810       27.2740267438       47.5760118360  SOLV      3504            0.0000000000
     10413      3444  TIP3      H1              6.3142464810       27.3954467438       46.8131318360  SOLV      3504            0.0000000000
     10414      3444  TIP3      H2              6.0678864810       27.9115267438       48.2148618360  SOLV      3504            0.0000000000
     10415      3445  TIP3      OH2            12.0582164810       32.7772167438       48.3100618360  SOLV      3505            0.0000000000
     10416      3445  TIP3      H1             11.8178764810       33.4395267438       48.9579818360  SOLV      3505            0.0000000000
     10417      3445  TIP3      H2             11.8600364810       31.9427367438       48.7350218360  SOLV      3505            0.0000000000
     10418      3446  TIP3      OH2            12.6080264810       27.0371367438       39.7451318360  SOLV      3506            0.0000000000
     10419      3446  TIP3      H1             13.1875764810       27.1871667438       40.4920218360  SOLV      3506            0.0000000000
     10420      3446  TIP3      H2             13.0220264810       27.5078767438       39.0217718360  SOLV      3506            0.0000000000
     10421      3447  TIP3      OH2            10.3345164810       33.7739867438       43.1804418360  SOLV      3507            0.0000000000
     10422      3447  TIP3      H1             10.8082764810       34.0696167438       43.9578618360  SOLV      3507            0.0000000000
     10423      3447  TIP3      H2              9.7714464810       34.5121467438       42.9474018360  SOLV      3507            0.0000000000
     10424      3448  TIP3      OH2            16.3068664810       18.7871767438       39.5581018360  SOLV      3508            0.0000000000
     10425      3448  TIP3      H1             15.4069364810       18.9260767438       39.8531618360  SOLV      3508            0.0000000000
     10426      3448  TIP3      H2             16.5587064810       19.6186367438       39.1562718360  SOLV      3508            0.0000000000
     10427      3449  TIP3      OH2             4.3727164810       27.5748967438       41.5317918360  SOLV      3509            0.0000000000
     10428      3449  TIP3      H1              4.0808464810       28.3430667438       41.0409218360  SOLV      3509            0.0000000000
     10429      3449  TIP3      H2              3.6982364810       26.9155167438       41.3689318360  SOLV      3509            0.0000000000
     10430      3450  TIP3      OH2            17.4960064810       33.1534167438       37.9344918360  SOLV      3510            0.0000000000
     10431      3450  TIP3      H1             17.5693564810       34.0924367438       38.1050218360  SOLV      3510            0.0000000000
     10432      3450  TIP3      H2             18.4015164810       32.8482767438       37.8782218360  SOLV      3510            0.0000000000
     10433      3451  TIP3      OH2             0.2159964810       32.7181967438       47.2307918360  SOLV      3511            0.0000000000
     10434      3451  TIP3      H1              1.1620564810       32.5738967438       47.2117418360  SOLV      3511            0.0000000000
     10435      3451  TIP3      H2              0.1036264810       33.5024767438       47.7679118360  SOLV      3511            0.0000000000
     10436      3452  TIP3      OH2             9.8068264810       36.7304567438       41.5953618360  SOLV      3512            0.0000000000
     10437      3452  TIP3      H1              9.7314264810       36.6091767438       40.6488818360  SOLV      3512            0.0000000000
     10438      3452  TIP3      H2              9.8396964810       37.6797267438       41.7138218360  SOLV      3512            0.0000000000
     10439      3453  TIP3      OH2             3.4602064810       35.5191567438       43.3762618360  SOLV      3513            0.0000000000
     10440      3453  TIP3      H1              3.6122464810       35.1711967438       44.2549118360  SOLV      3513            0.0000000000
     10441      3453  TIP3      H2              2.6092464810       35.1628867438       43.1209818360  SOLV      3513            0.0000000000
     10442      3454  TIP3      OH2            12.9084264810       35.8844767438       38.5976018360  SOLV      3514            0.0000000000
     10443      3454  TIP3      H1             13.2832664810       35.1400867438       38.1268618360  SOLV      3514            0.0000000000
     10444      3454  TIP3      H2             12.9127964810       35.6145367438       39.5159318360  SOLV      3514            0.0000000000
     10445      3455  TIP3      OH2            12.5772364810       35.8101867438       41.3468218360  SOLV      3515            0.0000000000
     10446      3455  TIP3      H1             11.6422164810       35.9103767438       41.5255218360  SOLV      3515            0.0000000000
     10447      3455  TIP3      H2             12.8574264810       35.1007867438       41.9251418360  SOLV      3515            0.0000000000
     10448      3456  TIP3      OH2             5.3335764810       19.7314067438       47.3854718360  SOLV      3516            0.0000000000
     10449      3456  TIP3      H1              4.4719464810       19.6442267438       46.9777618360  SOLV      3516            0.0000000000
     10450      3456  TIP3      H2              5.3111464810       20.5874167438       47.8132318360  SOLV      3516            0.0000000000
     10451      3457  TIP3      OH2            14.0853364810       28.0699667438       37.3749218360  SOLV      3517            0.0000000000
     10452      3457  TIP3      H1             14.1274164810       27.8473567438       36.4449218360  SOLV      3517            0.0000000000
     10453      3457  TIP3      H2             14.9345464810       28.4686767438       37.5649118360  SOLV      3517            0.0000000000
     10454      3458  TIP3      OH2             9.6580864810       21.9457867438       38.0452518360  SOLV      3518            0.0000000000
     10455      3458  TIP3      H1              9.4045664810       21.9649467438       38.9680618360  SOLV      3518            0.0000000000
     10456      3458  TIP3      H2              9.4012964810       21.0743267438       37.7438718360  SOLV      3518            0.0000000000
     10457      3459  TIP3      OH2             5.4245864810       24.6968567438       48.4804918360  SOLV      3519            0.0000000000
     10458      3459  TIP3      H1              4.7827964810       24.6565867438       49.1895018360  SOLV      3519            0.0000000000
     10459      3459  TIP3      H2              5.4617864810       25.6233267438       48.2427918360  SOLV      3519            0.0000000000
     10460      3460  TIP3      OH2             5.4214964810       24.9178667438       43.3924918360  SOLV      3520            0.0000000000
     10461      3460  TIP3      H1              4.5287864810       24.5774767438       43.3338718360  SOLV      3520            0.0000000000
     10462      3460  TIP3      H2              5.8721564810       24.5409567438       42.6368118360  SOLV      3520            0.0000000000
     10463      3461  TIP3      OH2            10.9570464810       25.3338967438       42.2095718360  SOLV      3521            0.0000000000
     10464      3461  TIP3      H1             10.5480764810       26.1487567438       41.9180518360  SOLV      3521            0.0000000000
     10465      3461  TIP3      H2             11.6776664810       25.1939067438       41.5952818360  SOLV      3521            0.0000000000
     10466      3462  TIP3      OH2            11.9618164810       24.7799367438       45.0235418360  SOLV      3522            0.0000000000
     10467      3462  TIP3      H1             11.7662664810       25.3856167438       44.3086018360  SOLV      3522            0.0000000000
     10468      3462  TIP3      H2             12.1430764810       23.9464567438       44.5891718360  SOLV      3522            0.0000000000
     10469      3463  TIP3      OH2             6.5403764810       22.3914367438       37.1462918360  SOLV      3523            0.0000000000
     10470      3463  TIP3      H1              6.1094464810       21.9464467438       37.8760318360  SOLV      3523            0.0000000000
     10471      3463  TIP3      H2              5.8222464810       22.7630667438       36.6340418360  SOLV      3523            0.0000000000
     10472      3464  TIP3      OH2            -0.2172835190       22.1333867438       44.1981618360  SOLV      3524            0.0000000000
     10473      3464  TIP3      H1              0.4134864810       22.1045967438       44.9175518360  SOLV      3524            0.0000000000
     10474      3464  TIP3      H2              0.2321464810       21.7082567438       43.4677518360  SOLV      3524            0.0000000000
     10475      3465  TIP3      OH2             1.0569264810       22.8795867438       39.6222018360  SOLV      3525            0.0000000000
     10476      3465  TIP3      H1              1.5310964810       23.4705767438       39.0372918360  SOLV      3525            0.0000000000
     10477      3465  TIP3      H2              0.3395664810       23.4098767438       39.9692118360  SOLV      3525            0.0000000000
     10478      3466  TIP3      OH2            11.2257364810       26.4180667438       49.6947818360  SOLV      3526            0.0000000000
     10479      3466  TIP3      H1             11.5492164810       25.7870367438       49.0518318360  SOLV      3526            0.0000000000
     10480      3466  TIP3      H2             10.7856664810       25.8832867438       50.3555218360  SOLV      3526            0.0000000000
     10481      3467  TIP3      OH2             8.0030264810       22.3456167438       44.4789018360  SOLV      3527            0.0000000000
     10482      3467  TIP3      H1              7.0921364810       22.4022967438       44.7675018360  SOLV      3527            0.0000000000
     10483      3467  TIP3      H2              8.5083164810       22.2851667438       45.2896218360  SOLV      3527            0.0000000000
     10484      3468  TIP3      OH2             2.8313664810       23.9742467438       43.3056618360  SOLV      3528            0.0000000000
     10485      3468  TIP3      H1              1.9421664810       24.0737967438       42.9656218360  SOLV      3528            0.0000000000
     10486      3468  TIP3      H2              3.1278564810       23.1325467438       42.9594518360  SOLV      3528            0.0000000000
     10487      3469  TIP3      OH2             6.4845464810       23.9745067438       40.9621218360  SOLV      3529            0.0000000000
     10488      3469  TIP3      H1              7.4160964810       24.1035067438       41.1404318360  SOLV      3529            0.0000000000
     10489      3469  TIP3      H2              6.2695764810       24.6439367438       40.3125918360  SOLV      3529            0.0000000000
     10490      3470  TIP3      OH2            12.4082164810       21.5802467438       47.7430818360  SOLV      3530            0.0000000000
     10491      3470  TIP3      H1             11.7313764810       21.7115567438       48.4070518360  SOLV      3530            0.0000000000
     10492      3470  TIP3      H2             11.9227064810       21.4251967438       46.9328518360  SOLV      3530            0.0000000000
     10493      3471  TIP3      OH2             5.1585664810       25.1687267438       38.5287318360  SOLV      3531            0.0000000000
     10494      3471  TIP3      H1              4.6160764810       24.7891067438       37.8374918360  SOLV      3531            0.0000000000
     10495      3471  TIP3      H2              5.9920564810       25.3631967438       38.1001418360  SOLV      3531            0.0000000000
     10496      3472  TIP3      OH2             9.3229964810       25.1329167438       46.3658618360  SOLV      3532            0.0000000000
     10497      3472  TIP3      H1              9.8873364810       24.5865767438       45.8188218360  SOLV      3532            0.0000000000
     10498      3472  TIP3      H2              9.1753364810       24.6111067438       47.1546218360  SOLV      3532            0.0000000000
     10499      3473  TIP3      OH2             4.3249664810       21.2695267438       42.7843418360  SOLV      3533            0.0000000000
     10500      3473  TIP3      H1              4.0079164810       20.3670567438       42.7488818360  SOLV      3533            0.0000000000
     10501      3473  TIP3      H2              5.1063764810       21.2712667438       42.2315018360  SOLV      3533            0.0000000000
     10502      3474  TIP3      OH2             7.9495864810       23.5215267438       48.7799018360  SOLV      3534            0.0000000000
     10503      3474  TIP3      H1              7.1141164810       23.9754767438       48.8901418360  SOLV      3534            0.0000000000
     10504      3474  TIP3      H2              8.4736464810       23.7973767438       49.5318918360  SOLV      3534            0.0000000000
     10505      3475  TIP3      OH2             8.4938464810       29.7342967438       40.4645418360  SOLV      3535            0.0000000000
     10506      3475  TIP3      H1              7.7489464810       29.2268267438       40.1423318360  SOLV      3535            0.0000000000
     10507      3475  TIP3      H2              8.3595664810       29.7830967438       41.4110218360  SOLV      3535            0.0000000000
     10508      3476  TIP3      OH2            15.6437364810       28.8671167438       49.2513018360  SOLV      3536            0.0000000000
     10509      3476  TIP3      H1             16.2856164810       29.3237467438       48.7075218360  SOLV      3536            0.0000000000
     10510      3476  TIP3      H2             14.8134264810       28.9803567438       48.7887118360  SOLV      3536            0.0000000000
     10511      3477  TIP3      OH2            12.3915264810       22.5482867438       38.6638018360  SOLV      3537            0.0000000000
     10512      3477  TIP3      H1             11.4529464810       22.6598467438       38.5126818360  SOLV      3537            0.0000000000
     10513      3477  TIP3      H2             12.6887364810       23.4049767438       38.9703718360  SOLV      3537            0.0000000000
     10514      3478  TIP3      OH2            13.1098764810       24.4155567438       40.3245418360  SOLV      3538            0.0000000000
     10515      3478  TIP3      H1             14.0017764810       24.2780567438       40.6436618360  SOLV      3538            0.0000000000
     10516      3478  TIP3      H2             13.1662364810       25.2061667438       39.7878918360  SOLV      3538            0.0000000000
     10517      3479  TIP3      OH2             3.6186764810       29.0292967438       46.2343318360  SOLV      3539            0.0000000000
     10518      3479  TIP3      H1              4.3633964810       29.0268667438       45.6329818360  SOLV      3539            0.0000000000
     10519      3479  TIP3      H2              3.6963364810       28.2056767438       46.7158418360  SOLV      3539            0.0000000000
     10520      3480  TIP3      OH2            10.6192564810       31.1927267438       39.4900018360  SOLV      3540            0.0000000000
     10521      3480  TIP3      H1             10.3240964810       32.0195167438       39.8714818360  SOLV      3540            0.0000000000
     10522      3480  TIP3      H2              9.9162564810       30.5734167438       39.6861418360  SOLV      3540            0.0000000000
     10523      3481  TIP3      OH2            17.9947464810       24.6249667438       40.0192118360  SOLV      3541            0.0000000000
     10524      3481  TIP3      H1             17.4403764810       24.2287667438       39.3469618360  SOLV      3541            0.0000000000
     10525      3481  TIP3      H2             18.0951064810       25.5354867438       39.7415418360  SOLV      3541            0.0000000000
     10526      3482  TIP3      OH2            16.2899164810       33.4110067438       40.4844218360  SOLV      3542            0.0000000000
     10527      3482  TIP3      H1             15.9170264810       32.5853867438       40.7934818360  SOLV      3542            0.0000000000
     10528      3482  TIP3      H2             16.5672664810       33.2279467438       39.5867618360  SOLV      3542            0.0000000000
     10529      3483  TIP3      OH2            13.4503064810       28.2189567438       47.5056118360  SOLV      3543            0.0000000000
     10530      3483  TIP3      H1             12.5219964810       27.9871467438       47.4785418360  SOLV      3543            0.0000000000
     10531      3483  TIP3      H2             13.9014164810       27.4419367438       47.1754918360  SOLV      3543            0.0000000000
     10532      3484  TIP3      OH2             5.9936164810       32.5471167438       43.6384818360  SOLV      3544            0.0000000000
     10533      3484  TIP3      H1              6.5208364810       33.3205567438       43.4383618360  SOLV      3544            0.0000000000
     10534      3484  TIP3      H2              5.1134664810       32.7720367438       43.3368818360  SOLV      3544            0.0000000000
     10535      3485  TIP3      OH2             1.7483864810       27.4095267438       38.2257218360  SOLV      3545            0.0000000000
     10536      3485  TIP3      H1              2.3643764810       28.0362467438       38.6052018360  SOLV      3545            0.0000000000
     10537      3485  TIP3      H2              0.8866464810       27.7255067438       38.4973718360  SOLV      3545            0.0000000000
     10538      3486  TIP3      OH2             7.4208464810       30.2101067438       43.2149118360  SOLV      3546            0.0000000000
     10539      3486  TIP3      H1              7.1798464810       31.1355467438       43.2564418360  SOLV      3546            0.0000000000
     10540      3486  TIP3      H2              6.6802064810       29.7512367438       43.6113018360  SOLV      3546            0.0000000000
     10541      3487  TIP3      OH2             7.9355064810       34.3594667438       49.5300218360  SOLV      3547            0.0000000000
     10542      3487  TIP3      H1              8.2979764810       35.2140267438       49.2964618360  SOLV      3547            0.0000000000
     10543      3487  TIP3      H2              8.4670264810       34.0676267438       50.2706518360  SOLV      3547            0.0000000000
     10544      3488  TIP3      OH2             6.1039264810       35.2318667438       42.7601318360  SOLV      3548            0.0000000000
     10545      3488  TIP3      H1              5.1539764810       35.3376067438       42.8114618360  SOLV      3548            0.0000000000
     10546      3488  TIP3      H2              6.4557364810       36.0526067438       43.1048818360  SOLV      3548            0.0000000000
     10547      3489  TIP3      OH2            11.4795864810       30.4585367438       49.2305818360  SOLV      3549            0.0000000000
     10548      3489  TIP3      H1             11.0537164810       30.2307067438       50.0569818360  SOLV      3549            0.0000000000
     10549      3489  TIP3      H2             12.0601664810       29.7197167438       49.0481118360  SOLV      3549            0.0000000000
     10550      3490  TIP3      OH2            13.6824764810       31.3875867438       38.3044818360  SOLV      3550            0.0000000000
     10551      3490  TIP3      H1             14.0357864810       31.0075667438       39.1088318360  SOLV      3550            0.0000000000
     10552      3490  TIP3      H2             12.7338264810       31.2940667438       38.3914118360  SOLV      3550            0.0000000000
     10553      3491  TIP3      OH2            18.1859164810       35.8668367438       38.5055018360  SOLV      3551            0.0000000000
     10554      3491  TIP3      H1             18.9297064810       36.4528867438       38.3656618360  SOLV      3551            0.0000000000
     10555      3491  TIP3      H2             17.4917264810       36.4354167438       38.8387418360  SOLV      3551            0.0000000000
     10556      3492  TIP3      OH2            14.5484064810       30.0597867438       40.5312718360  SOLV      3552            0.0000000000
     10557      3492  TIP3      H1             14.2711664810       29.3317167438       41.0873818360  SOLV      3552            0.0000000000
     10558      3492  TIP3      H2             15.4757064810       30.1789867438       40.7365318360  SOLV      3552            0.0000000000
     10559      3493  TIP3      OH2             1.9117964810       34.0476967438       49.5422618360  SOLV      3553            0.0000000000
     10560      3493  TIP3      H1              2.1288264810       33.1159367438       49.5112318360  SOLV      3553            0.0000000000
     10561      3493  TIP3      H2              2.1581464810       34.3221967438       50.4255418360  SOLV      3553            0.0000000000
     10562      3494  TIP3      OH2             7.7732564810       32.4991967438       36.7514818360  SOLV      3554            0.0000000000
     10563      3494  TIP3      H1              8.0122364810       31.7510067438       36.2043718360  SOLV      3554            0.0000000000
     10564      3494  TIP3      H2              7.5043864810       32.1113667438       37.5842618360  SOLV      3554            0.0000000000
     10565      3495  TIP3      OH2             6.7103164810       32.0695767438       39.2077418360  SOLV      3555            0.0000000000
     10566      3495  TIP3      H1              6.8571164810       31.5495567438       39.9978318360  SOLV      3555            0.0000000000
     10567      3495  TIP3      H2              6.7074864810       32.9763367438       39.5143318360  SOLV      3555            0.0000000000
     10568      3496  TIP3      OH2             3.1634264810       29.3219067438       39.7182818360  SOLV      3556            0.0000000000
     10569      3496  TIP3      H1              2.4773564810       29.6741567438       40.2852518360  SOLV      3556            0.0000000000
     10570      3496  TIP3      H2              3.6862164810       30.0848667438       39.4717118360  SOLV      3556            0.0000000000
     10571      3497  TIP3      OH2            11.7794264810       21.6364567438       41.0944118360  SOLV      3557            0.0000000000
     10572      3497  TIP3      H1             11.9992564810       22.1079967438       40.2909518360  SOLV      3557            0.0000000000
     10573      3497  TIP3      H2             12.3378264810       22.0307167438       41.7644718360  SOLV      3557            0.0000000000
     10574      3498  TIP3      OH2             9.4480364810       33.7669367438       39.9571618360  SOLV      3558            0.0000000000
     10575      3498  TIP3      H1              8.6316464810       34.2639067438       40.0095918360  SOLV      3558            0.0000000000
     10576      3498  TIP3      H2              9.9776664810       34.2422867438       39.3170418360  SOLV      3558            0.0000000000
     10577      3499  TIP3      OH2             8.9794164810       23.3643367438       41.9292518360  SOLV      3559            0.0000000000
     10578      3499  TIP3      H1              9.7916764810       23.8686567438       41.9754218360  SOLV      3559            0.0000000000
     10579      3499  TIP3      H2              8.7347164810       23.2193067438       42.8432118360  SOLV      3559            0.0000000000
     10580      3500  TIP3      OH2             9.8630864810       20.4456367438       42.8673618360  SOLV      3560            0.0000000000
     10581      3500  TIP3      H1              9.5164364810       21.0626967438       43.5117918360  SOLV      3560            0.0000000000
     10582      3500  TIP3      H2             10.5217764810       20.9462067438       42.3859118360  SOLV      3560            0.0000000000
     10583      3501  TIP3      OH2             6.7863464810       34.8106567438       39.9388518360  SOLV      3561            0.0000000000
     10584      3501  TIP3      H1              6.9472164810       35.6104067438       39.4381118360  SOLV      3561            0.0000000000
     10585      3501  TIP3      H2              6.5891264810       35.1172567438       40.8239118360  SOLV      3561            0.0000000000
     10586      3502  TIP3      OH2             5.5207864810       21.5085767438       39.5546118360  SOLV      3562            0.0000000000
     10587      3502  TIP3      H1              5.4372664810       22.3968867438       39.9012518360  SOLV      3562            0.0000000000
     10588      3502  TIP3      H2              6.4108164810       21.2432467438       39.7862918360  SOLV      3562            0.0000000000
     10589      3503  TIP3      OH2            14.3217364810       26.0077367438       46.0446118360  SOLV      3563            0.0000000000
     10590      3503  TIP3      H1             13.5241764810       25.5927567438       45.7161118360  SOLV      3563            0.0000000000
     10591      3503  TIP3      H2             14.7668464810       25.3171067438       46.5356618360  SOLV      3563            0.0000000000
     10592      3504  TIP3      OH2             3.7793164810       31.9357967438       38.6150618360  SOLV      3564            0.0000000000
     10593      3504  TIP3      H1              4.3714664810       32.6352767438       38.8913018360  SOLV      3564            0.0000000000
     10594      3504  TIP3      H2              4.2386164810       31.5027467438       37.8955218360  SOLV      3564            0.0000000000
     10595      3505  TIP3      OH2             2.0952364810       24.6000967438       37.7310018360  SOLV      3565            0.0000000000
     10596      3505  TIP3      H1              2.0504964810       25.5394067438       37.9097018360  SOLV      3565            0.0000000000
     10597      3505  TIP3      H2              1.2075564810       24.3645867438       37.4612118360  SOLV      3565            0.0000000000
     10598      3506  TIP3      OH2            15.4081964810       35.2639867438       47.6669618360  SOLV      3566            0.0000000000
     10599      3506  TIP3      H1             15.2526264810       35.9424267438       47.0098918360  SOLV      3566            0.0000000000
     10600      3506  TIP3      H2             16.3408364810       35.3359167438       47.8700218360  SOLV      3566            0.0000000000
     10601      3507  TIP3      OH2             2.9034364810       19.3817567438       46.4041018360  SOLV      3567            0.0000000000
     10602      3507  TIP3      H1              2.6744164810       19.4410067438       45.4766018360  SOLV      3567            0.0000000000
     10603      3507  TIP3      H2              2.4607764810       18.5903067438       46.7105118360  SOLV      3567            0.0000000000
     10604      3508  TIP3      OH2             1.8337664810       33.3224667438       42.5646818360  SOLV      3568            0.0000000000
     10605      3508  TIP3      H1              1.0016264810       33.7947367438       42.5918218360  SOLV      3568            0.0000000000
     10606      3508  TIP3      H2              2.3795964810       33.8322267438       41.9659918360  SOLV      3568            0.0000000000
     10607      3509  TIP3      OH2             9.8114364810       34.3623367438       36.8900818360  SOLV      3569            0.0000000000
     10608      3509  TIP3      H1              9.1675364810       33.7311967438       37.2114518360  SOLV      3569            0.0000000000
     10609      3509  TIP3      H2             10.5732664810       33.8311367438       36.6584318360  SOLV      3569            0.0000000000
     10610      3510  TIP3      OH2            14.4157264810       34.1793267438       37.1238818360  SOLV      3570            0.0000000000
     10611      3510  TIP3      H1             14.6987664810       33.3848467438       37.5765718360  SOLV      3570            0.0000000000
     10612      3510  TIP3      H2             15.1555164810       34.4124267438       36.5629918360  SOLV      3570            0.0000000000
     10613      3511  TIP3      OH2             5.3704564810       30.0888167438       36.9813718360  SOLV      3571            0.0000000000
     10614      3511  TIP3      H1              5.4348664810       29.2947767438       37.5120118360  SOLV      3571            0.0000000000
     10615      3511  TIP3      H2              6.0233764810       29.9700967438       36.2915718360  SOLV      3571            0.0000000000
     10616      3512  TIP3      OH2            10.7227964810       31.1359867438       36.7171718360  SOLV      3572            0.0000000000
     10617      3512  TIP3      H1             10.4542064810       31.3161967438       37.6180618360  SOLV      3572            0.0000000000
     10618      3512  TIP3      H2             10.5163564810       30.2106067438       36.5857518360  SOLV      3572            0.0000000000
     10619      3513  TIP3      OH2             6.5198364810       28.0614367438       39.2871718360  SOLV      3573            0.0000000000
     10620      3513  TIP3      H1              6.0600364810       27.5772667438       39.9730218360  SOLV      3573            0.0000000000
     10621      3513  TIP3      H2              6.7747064810       27.3929767438       38.6512218360  SOLV      3573            0.0000000000
     10622      3514  TIP3      OH2             7.5908764810       26.3046167438       37.5494918360  SOLV      3574            0.0000000000
     10623      3514  TIP3      H1              7.4103764810       26.1497367438       36.6223218360  SOLV      3574            0.0000000000
     10624      3514  TIP3      H2              8.5409264810       26.4124867438       37.5942818360  SOLV      3574            0.0000000000
     10625      3515  TIP3      OH2            16.9807064810       28.6590367438       36.9953018360  SOLV      3575            0.0000000000
     10626      3515  TIP3      H1             16.7071864810       28.2345867438       36.1821318360  SOLV      3575            0.0000000000
     10627      3515  TIP3      H2             17.0201164810       29.5904867438       36.7783418360  SOLV      3575            0.0000000000
     10628      3516  TIP3      OH2             7.4880464810       36.9949867438       38.5508518360  SOLV      3576            0.0000000000
     10629      3516  TIP3      H1              8.4211164810       37.1528567438       38.6946918360  SOLV      3576            0.0000000000
     10630      3516  TIP3      H2              7.2239264810       37.6702867438       37.9260018360  SOLV      3576            0.0000000000
     10631      3517  TIP3      OH2             1.0565364810       31.6313667438       38.0336618360  SOLV      3577            0.0000000000
     10632      3517  TIP3      H1              1.9704564810       31.7102567438       38.3070518360  SOLV      3577            0.0000000000
     10633      3517  TIP3      H2              1.0638464810       30.9443267438       37.3672218360  SOLV      3577            0.0000000000
     10634      3518  TIP3      OH2             0.5755164810       35.1049167438       44.9156718360  SOLV      3578            0.0000000000
     10635      3518  TIP3      H1              0.2411964810       34.2246467438       45.0876918360  SOLV      3578            0.0000000000
     10636      3518  TIP3      H2              0.7977564810       35.4504167438       45.7802318360  SOLV      3578            0.0000000000
     10637      3519  TIP3      OH2            18.1239964810       35.9145567438       47.8961518360  SOLV      3579            0.0000000000
     10638      3519  TIP3      H1             18.1026664810       36.0993967438       48.8350918360  SOLV      3579            0.0000000000
     10639      3519  TIP3      H2             18.8146164810       36.4829567438       47.5552918360  SOLV      3579            0.0000000000
     10640      3520  TIP3      OH2            17.4389864810       29.5278467438       40.9703418360  SOLV      3580            0.0000000000
     10641      3520  TIP3      H1             18.2891264810       29.9489367438       41.0975018360  SOLV      3580            0.0000000000
     10642      3520  TIP3      H2             17.4444964810       28.7878567438       41.5774818360  SOLV      3580            0.0000000000
     10643      3521  TIP3      OH2            17.8335464810       27.5815867438       42.7939118360  SOLV      3581            0.0000000000
     10644      3521  TIP3      H1             17.1070064810       27.1018467438       43.1916718360  SOLV      3581            0.0000000000
     10645      3521  TIP3      H2             18.4148764810       27.7870567438       43.5260718360  SOLV      3581            0.0000000000
     10646      3522  TIP3      OH2            17.5926664810       30.3663367438       47.7416718360  SOLV      3582            0.0000000000
     10647      3522  TIP3      H1             18.4260864810       29.9883367438       47.4610318360  SOLV      3582            0.0000000000
     10648      3522  TIP3      H2             17.7046964810       31.3094567438       47.6225818360  SOLV      3582            0.0000000000
     10649      3523  TIP3      OH2            18.1018564810       27.4824367438       39.1850418360  SOLV      3583            0.0000000000
     10650      3523  TIP3      H1             17.5799664810       27.8388467438       38.4661318360  SOLV      3583            0.0000000000
     10651      3523  TIP3      H2             18.0687764810       28.1572167438       39.8631318360  SOLV      3583            0.0000000000
     10652      3524  TIP3      OH2            16.4507564810       24.7219967438       37.7357518360  SOLV      3584            0.0000000000
     10653      3524  TIP3      H1             16.5471964810       25.3886967438       37.0557218360  SOLV      3584            0.0000000000
     10654      3524  TIP3      H2             16.3107164810       23.9066267438       37.2543018360  SOLV      3584            0.0000000000
     10655      3525  TIP3      OH2            15.6202264810       26.1022367438       43.3567818360  SOLV      3585            0.0000000000
     10656      3525  TIP3      H1             15.4701064810       25.1570967438       43.3365618360  SOLV      3585            0.0000000000
     10657      3525  TIP3      H2             15.2666764810       26.3833767438       44.2006918360  SOLV      3585            0.0000000000
     10658      3526  TIP3      OH2             0.6554664810       28.1804567438       47.3671618360  SOLV      3586            0.0000000000
     10659      3526  TIP3      H1              0.8397564810       28.0986267438       46.4314518360  SOLV      3586            0.0000000000
     10660      3526  TIP3      H2              1.5047564810       28.0561567438       47.7908018360  SOLV      3586            0.0000000000
     10661      3527  TIP3      OH2            15.6981364810       22.1299767438       36.8533018360  SOLV      3587            0.0000000000
     10662      3527  TIP3      H1             16.3087164810       21.7586567438       37.4901218360  SOLV      3587            0.0000000000
     10663      3527  TIP3      H2             14.8612864810       21.7086667438       37.0493018360  SOLV      3587            0.0000000000
     10664      3528  TIP3      OH2            15.3307064810       23.6848167438       41.8192918360  SOLV      3588            0.0000000000
     10665      3528  TIP3      H1             15.6104164810       22.7778567438       41.9434618360  SOLV      3588            0.0000000000
     10666      3528  TIP3      H2             16.0898764810       24.1189667438       41.4302118360  SOLV      3588            0.0000000000
     10667      3529  TIP3      OH2            15.9425364810       24.2665567438       47.2551818360  SOLV      3589            0.0000000000
     10668      3529  TIP3      H1             16.8753364810       24.4785467438       47.2207818360  SOLV      3589            0.0000000000
     10669      3529  TIP3      H2             15.7072864810       24.3677667438       48.1774818360  SOLV      3589            0.0000000000
     10670      3530  TIP3      OH2            15.9441864810       20.9477467438       41.8674918360  SOLV      3590            0.0000000000
     10671      3530  TIP3      H1             16.1266864810       20.4988967438       42.6929918360  SOLV      3590            0.0000000000
     10672      3530  TIP3      H2             15.3444764810       20.3631867438       41.4039518360  SOLV      3590            0.0000000000
     10673      3531  TIP3      OH2             1.4741964810       21.7631167438       46.3993318360  SOLV      3591            0.0000000000
     10674      3531  TIP3      H1              1.9193564810       20.9713667438       46.7013018360  SOLV      3591            0.0000000000
     10675      3531  TIP3      H2              1.9404964810       22.4796367438       46.8298918360  SOLV      3591            0.0000000000
     10676      3532  TIP3      OH2            -0.2217735190       24.7624167438       47.4683518360  SOLV      3592            0.0000000000
     10677      3532  TIP3      H1              0.2702064810       24.5414667438       46.6775518360  SOLV      3592            0.0000000000
     10678      3532  TIP3      H2              0.1403164810       25.6027567438       47.7493018360  SOLV      3592            0.0000000000
     10679      3533  TIP3      OH2            17.8108064810       21.0155567438       38.3955218360  SOLV      3593            0.0000000000
     10680      3533  TIP3      H1             18.2230664810       20.2941267438       37.9203218360  SOLV      3593            0.0000000000
     10681      3533  TIP3      H2             18.4924564810       21.6850167438       38.4539518360  SOLV      3593            0.0000000000
     10682      3534  TIP3      OH2            14.8625964810       36.0044967438       43.4683318360  SOLV      3594            0.0000000000
     10683      3534  TIP3      H1             15.5148864810       35.6567067438       42.8602418360  SOLV      3594            0.0000000000
     10684      3534  TIP3      H2             15.3729764810       36.4928167438       44.1143018360  SOLV      3594            0.0000000000
     10685      3535  TIP3      OH2             5.0705664810       36.7645367438       49.3470718360  SOLV      3595            0.0000000000
     10686      3535  TIP3      H1              4.2057864810       36.8363867438       49.7510818360  SOLV      3595            0.0000000000
     10687      3535  TIP3      H2              5.0154664810       37.3112667438       48.5633218360  SOLV      3595            0.0000000000
     10688      3536  TIP3      OH2             9.7811264810       36.6524267438       48.5226718360  SOLV      3596            0.0000000000
     10689      3536  TIP3      H1              9.3245264810       37.1813967438       47.8685118360  SOLV      3596            0.0000000000
     10690      3536  TIP3      H2              9.9439264810       37.2555667438       49.2479018360  SOLV      3596            0.0000000000
     10691      3537  TIP3      OH2            12.1087564810       35.5303867438       49.4677018360  SOLV      3597            0.0000000000
     10692      3537  TIP3      H1             11.2041264810       35.6954067438       49.2019118360  SOLV      3597            0.0000000000
     10693      3537  TIP3      H2             12.5376164810       36.3836067438       49.4020418360  SOLV      3597            0.0000000000
     10694      3538  TIP3      OH2            14.7129464810       37.1002967438       49.7624818360  SOLV      3598            0.0000000000
     10695      3538  TIP3      H1             14.5311464810       38.0161867438       49.5519718360  SOLV      3598            0.0000000000
     10696      3538  TIP3      H2             14.8897264810       36.6900067438       48.9159418360  SOLV      3598            0.0000000000
     10697      3539  TIP3      OH2             2.0181164810       35.7873967438       47.2275318360  SOLV      3599            0.0000000000
     10698      3539  TIP3      H1              1.9997164810       35.3619067438       48.0847618360  SOLV      3599            0.0000000000
     10699      3539  TIP3      H2              2.8229064810       35.4688967438       46.8187518360  SOLV      3599            0.0000000000
     10700      3540  TIP3      OH2             4.1594264810       34.4972667438       45.8825218360  SOLV      3600            0.0000000000
     10701      3540  TIP3      H1              3.9404964810       33.5810067438       46.0521218360  SOLV      3600            0.0000000000
     10702      3540  TIP3      H2              4.9836464810       34.6373067438       46.3486618360  SOLV      3600            0.0000000000
     10703      3541  TIP3      OH2             6.6966764810       34.9671967438       46.7313218360  SOLV      3601            0.0000000000
     10704      3541  TIP3      H1              6.9092464810       34.0790967438       46.4444118360  SOLV      3601            0.0000000000
     10705      3541  TIP3      H2              6.7611864810       34.9329667438       47.6857218360  SOLV      3601            0.0000000000
     10706      3542  TIP3      OH2            10.2050464810       20.6312567438       45.8756518360  SOLV      3602            0.0000000000
     10707      3542  TIP3      H1              9.5307264810       20.0018167438       46.1312318360  SOLV      3602            0.0000000000
     10708      3542  TIP3      H2             10.7689664810       20.1471467438       45.2724418360  SOLV      3602            0.0000000000
     10709      3543  TIP3      OH2            15.3477664810       18.7386567438       45.9883618360  SOLV      3603            0.0000000000
     10710      3543  TIP3      H1             15.9515264810       19.2861967438       45.4864618360  SOLV      3603            0.0000000000
     10711      3543  TIP3      H2             14.4779664810       19.0576967438       45.7477718360  SOLV      3603            0.0000000000
     10712      3544  TIP3      OH2            17.0748064810       19.8775267438       44.3214518360  SOLV      3604            0.0000000000
     10713      3544  TIP3      H1             17.6865564810       19.3630967438       43.7948118360  SOLV      3604            0.0000000000
     10714      3544  TIP3      H2             17.4571464810       20.7547367438       44.3448918360  SOLV      3604            0.0000000000
     10715      3545  TIP3      OH2             2.5317964810       19.2652867438       43.6976418360  SOLV      3605            0.0000000000
     10716      3545  TIP3      H1              1.7547764810       19.0307767438       43.1902318360  SOLV      3605            0.0000000000
     10717      3545  TIP3      H2              3.0621564810       18.4684967438       43.7064418360  SOLV      3605            0.0000000000
     10718      3546  TIP3      OH2             1.3681364810       19.0630967438       39.5012518360  SOLV      3606            0.0000000000
     10719      3546  TIP3      H1              1.8072064810       19.6741467438       38.9096018360  SOLV      3606            0.0000000000
     10720      3546  TIP3      H2              0.7343764810       19.6015067438       39.9752518360  SOLV      3606            0.0000000000
     10721      3547  TIP3      OH2             7.1110564810       19.1919967438       43.5109518360  SOLV      3607            0.0000000000
     10722      3547  TIP3      H1              7.9853964810       19.5804267438       43.4813818360  SOLV      3607            0.0000000000
     10723      3547  TIP3      H2              6.9751364810       18.9767767438       44.4336718360  SOLV      3607            0.0000000000
     10724      3548  TIP3      OH2            12.6678964810       19.2219767438       45.1601218360  SOLV      3608            0.0000000000
     10725      3548  TIP3      H1             12.7440564810       19.3171367438       44.2107218360  SOLV      3608            0.0000000000
     10726      3548  TIP3      H2             12.3928164810       18.3142667438       45.2890318360  SOLV      3608            0.0000000000
     10727      3549  TIP3      OH2            14.0211564810       19.2477567438       40.8526218360  SOLV      3609            0.0000000000
     10728      3549  TIP3      H1             13.3182664810       19.8626767438       40.6427618360  SOLV      3609            0.0000000000
     10729      3549  TIP3      H2             13.5762964810       18.4104267438       40.9837118360  SOLV      3609            0.0000000000
     10730      3550  TIP3      OH2             1.2690864810       35.0113167438       40.3987618360  SOLV      3610            0.0000000000
     10731      3550  TIP3      H1              0.5840764810       34.9732067438       39.7312718360  SOLV      3610            0.0000000000
     10732      3550  TIP3      H2              1.2728064810       35.9240767438       40.6869718360  SOLV      3610            0.0000000000
     10733      3551  TIP3      OH2             3.2290464810       20.9792467438       37.9436618360  SOLV      3611            0.0000000000
     10734      3551  TIP3      H1              3.7203864810       20.3494867438       37.4162118360  SOLV      3611            0.0000000000
     10735      3551  TIP3      H2              3.8526764810       21.2751867438       38.6067818360  SOLV      3611            0.0000000000
     10736      3552  TIP3      OH2             8.2550564810       21.2723967438       40.4007118360  SOLV      3612            0.0000000000
     10737      3552  TIP3      H1              8.4331864810       20.6257167438       41.0835718360  SOLV      3612            0.0000000000
     10738      3552  TIP3      H2              8.2016764810       22.1061667438       40.8678218360  SOLV      3612            0.0000000000
     10739      3553  TIP3      OH2            10.1334364810       36.2208067438       38.7963818360  SOLV      3613            0.0000000000
     10740      3553  TIP3      H1             10.9994564810       36.5875467438       38.6182018360  SOLV      3613            0.0000000000
     10741      3553  TIP3      H2              9.8867164810       35.7816067438       37.9824618360  SOLV      3613            0.0000000000
     10742      3554  TIP3      OH2            16.8423964810       35.7838367438       41.4754918360  SOLV      3614            0.0000000000
     10743      3554  TIP3      H1             16.6481064810       35.0360467438       40.9104518360  SOLV      3614            0.0000000000
     10744      3554  TIP3      H2             16.8034064810       36.5418467438       40.8922818360  SOLV      3614            0.0000000000
     10745      3555  TIP3      OH2             3.0872064810       35.9313967438       37.4239718360  SOLV      3615            0.0000000000
     10746      3555  TIP3      H1              2.8196664810       36.2176867438       38.2972818360  SOLV      3615            0.0000000000
     10747      3555  TIP3      H2              3.8584664810       35.3853167438       37.5762218360  SOLV      3615            0.0000000000
     10748      3556  TIP3      OH2            30.1100564810       28.4215167438       43.6563918360  SOLV      3616            0.0000000000
     10749      3556  TIP3      H1             30.1991664810       29.3653367438       43.5241018360  SOLV      3616            0.0000000000
     10750      3556  TIP3      H2             29.4718164810       28.1461567438       42.9983318360  SOLV      3616            0.0000000000
     10751      3557  TIP3      OH2            29.0431864810       27.6765867438       47.0752118360  SOLV      3617            0.0000000000
     10752      3557  TIP3      H1             29.0049364810       27.0302167438       47.7801718360  SOLV      3617            0.0000000000
     10753      3557  TIP3      H2             28.7208364810       27.2100267438       46.3040818360  SOLV      3617            0.0000000000
     10754      3558  TIP3      OH2            21.4116864810       27.2907967438       48.6682018360  SOLV      3618            0.0000000000
     10755      3558  TIP3      H1             21.4528964810       26.6651267438       49.3914418360  SOLV      3618            0.0000000000
     10756      3558  TIP3      H2             22.1144564810       27.9146567438       48.8502418360  SOLV      3618            0.0000000000
     10757      3559  TIP3      OH2            32.7492064810       30.6156267438       45.3767218360  SOLV      3619            0.0000000000
     10758      3559  TIP3      H1             32.3084764810       29.8952267438       45.8272818360  SOLV      3619            0.0000000000
     10759      3559  TIP3      H2             32.7361764810       31.3363467438       46.0064918360  SOLV      3619            0.0000000000
     10760      3560  TIP3      OH2            22.3349964810       31.7406867438       47.2031118360  SOLV      3620            0.0000000000
     10761      3560  TIP3      H1             21.9655164810       30.9387367438       46.8335418360  SOLV      3620            0.0000000000
     10762      3560  TIP3      H2             23.2761064810       31.5721767438       47.2494518360  SOLV      3620            0.0000000000
     10763      3561  TIP3      OH2            18.9450464810       25.4009467438       42.5959918360  SOLV      3621            0.0000000000
     10764      3561  TIP3      H1             18.4973864810       26.2468167438       42.5776418360  SOLV      3621            0.0000000000
     10765      3561  TIP3      H2             18.3841664810       24.8213667438       42.0805018360  SOLV      3621            0.0000000000
     10766      3562  TIP3      OH2            19.6556564810       27.5629067438       44.7217918360  SOLV      3622            0.0000000000
     10767      3562  TIP3      H1             19.8690064810       26.7930667438       45.2490918360  SOLV      3622            0.0000000000
     10768      3562  TIP3      H2             20.3934164810       27.6525767438       44.1185518360  SOLV      3622            0.0000000000
     10769      3563  TIP3      OH2            29.8607564810       35.7197967438       45.5887618360  SOLV      3623            0.0000000000
     10770      3563  TIP3      H1             30.4803964810       35.0432667438       45.3156818360  SOLV      3623            0.0000000000
     10771      3563  TIP3      H2             29.6524964810       35.5018767438       46.4972518360  SOLV      3623            0.0000000000
     10772      3564  TIP3      OH2            27.4326264810       30.1087267438       47.4813118360  SOLV      3624            0.0000000000
     10773      3564  TIP3      H1             27.7364164810       29.4228667438       46.8867218360  SOLV      3624            0.0000000000
     10774      3564  TIP3      H2             28.1540264810       30.2275967438       48.0991118360  SOLV      3624            0.0000000000
     10775      3565  TIP3      OH2            36.0956064810       21.7102567438       48.3419318360  SOLV      3625            0.0000000000
     10776      3565  TIP3      H1             36.1448264810       22.3203767438       49.0778418360  SOLV      3625            0.0000000000
     10777      3565  TIP3      H2             36.5211164810       22.1713467438       47.6190418360  SOLV      3625            0.0000000000
     10778      3566  TIP3      OH2            30.5733264810       24.5029667438       47.8087918360  SOLV      3626            0.0000000000
     10779      3566  TIP3      H1             30.7159164810       23.5566667438       47.8289518360  SOLV      3626            0.0000000000
     10780      3566  TIP3      H2             30.4672264810       24.7099467438       46.8802818360  SOLV      3626            0.0000000000
     10781      3567  TIP3      OH2            23.7281564810       22.6046067438       45.0812718360  SOLV      3627            0.0000000000
     10782      3567  TIP3      H1             23.7712664810       23.4644567438       44.6629018360  SOLV      3627            0.0000000000
     10783      3567  TIP3      H2             23.2705664810       22.0520767438       44.4475918360  SOLV      3627            0.0000000000
     10784      3568  TIP3      OH2            31.4504264810       22.7351667438       43.4821018360  SOLV      3628            0.0000000000
     10785      3568  TIP3      H1             32.0968564810       22.4064867438       44.1068618360  SOLV      3628            0.0000000000
     10786      3568  TIP3      H2             31.9603664810       23.2530667438       42.8592418360  SOLV      3628            0.0000000000
     10787      3569  TIP3      OH2            20.3483064810       25.0011867438       45.8434118360  SOLV      3629            0.0000000000
     10788      3569  TIP3      H1             21.0019664810       24.4513567438       46.2754218360  SOLV      3629            0.0000000000
     10789      3569  TIP3      H2             20.3722364810       24.7270867438       44.9266118360  SOLV      3629            0.0000000000
     10790      3570  TIP3      OH2            25.5047564810       26.5513167438       45.0585618360  SOLV      3630            0.0000000000
     10791      3570  TIP3      H1             26.1208564810       26.0248567438       45.5679618360  SOLV      3630            0.0000000000
     10792      3570  TIP3      H2             24.9186364810       25.9111867438       44.6549218360  SOLV      3630            0.0000000000
     10793      3571  TIP3      OH2            22.5383464810       21.5224467438       49.1553518360  SOLV      3631            0.0000000000
     10794      3571  TIP3      H1             22.3195164810       22.0525067438       48.3889518360  SOLV      3631            0.0000000000
     10795      3571  TIP3      H2             21.8704364810       21.7489967438       49.8024918360  SOLV      3631            0.0000000000
     10796      3572  TIP3      OH2            29.9073264810       31.0225567438       42.6992618360  SOLV      3632            0.0000000000
     10797      3572  TIP3      H1             29.6118364810       30.6997867438       41.8479518360  SOLV      3632            0.0000000000
     10798      3572  TIP3      H2             29.5831064810       31.9222267438       42.7405218360  SOLV      3632            0.0000000000
     10799      3573  TIP3      OH2            25.1074864810       29.1980167438       49.4427218360  SOLV      3633            0.0000000000
     10800      3573  TIP3      H1             24.3673964810       29.7961667438       49.5462418360  SOLV      3633            0.0000000000
     10801      3573  TIP3      H2             25.8214364810       29.7519767438       49.1270818360  SOLV      3633            0.0000000000
     10802      3574  TIP3      OH2            33.2142664810       22.0260967438       45.4626918360  SOLV      3634            0.0000000000
     10803      3574  TIP3      H1             32.9990664810       21.2604367438       45.9952918360  SOLV      3634            0.0000000000
     10804      3574  TIP3      H2             33.8700064810       22.4985567438       45.9755418360  SOLV      3634            0.0000000000
     10805      3575  TIP3      OH2            22.1320764810       23.4146267438       47.1075718360  SOLV      3635            0.0000000000
     10806      3575  TIP3      H1             22.7457064810       24.0473867438       47.4808118360  SOLV      3635            0.0000000000
     10807      3575  TIP3      H2             22.6441464810       22.9421267438       46.4512618360  SOLV      3635            0.0000000000
     10808      3576  TIP3      OH2            19.6360064810       30.8331067438       41.0118018360  SOLV      3636            0.0000000000
     10809      3576  TIP3      H1             19.3640964810       31.0622067438       40.1230918360  SOLV      3636            0.0000000000
     10810      3576  TIP3      H2             19.6815764810       31.6709867438       41.4723318360  SOLV      3636            0.0000000000
     10811      3577  TIP3      OH2            33.2609764810       32.4546967438       47.7246518360  SOLV      3637            0.0000000000
     10812      3577  TIP3      H1             32.3193464810       32.5130867438       47.8863418360  SOLV      3637            0.0000000000
     10813      3577  TIP3      H2             33.5375864810       33.3607467438       47.5876218360  SOLV      3637            0.0000000000
     10814      3578  TIP3      OH2            33.5616764810       20.7412267438       49.1420418360  SOLV      3638            0.0000000000
     10815      3578  TIP3      H1             32.8255964810       21.3519367438       49.1041718360  SOLV      3638            0.0000000000
     10816      3578  TIP3      H2             34.2450764810       21.1561267438       48.6156818360  SOLV      3638            0.0000000000
     10817      3579  TIP3      OH2            26.5648164810       18.8279567438       46.6078418360  SOLV      3639            0.0000000000
     10818      3579  TIP3      H1             26.4472364810       17.8795567438       46.5536718360  SOLV      3639            0.0000000000
     10819      3579  TIP3      H2             25.7098264810       19.1605667438       46.8809518360  SOLV      3639            0.0000000000
     10820      3580  TIP3      OH2            31.5130964810       34.2360467438       44.3498118360  SOLV      3640            0.0000000000
     10821      3580  TIP3      H1             31.9383264810       33.5288367438       43.8647718360  SOLV      3640            0.0000000000
     10822      3580  TIP3      H2             31.8300964810       35.0373167438       43.9330318360  SOLV      3640            0.0000000000
     10823      3581  TIP3      OH2            32.6727464810       32.1368967438       42.8584718360  SOLV      3641            0.0000000000
     10824      3581  TIP3      H1             32.4152264810       31.4469067438       42.2470618360  SOLV      3641            0.0000000000
     10825      3581  TIP3      H2             32.7438264810       31.6940167438       43.7040618360  SOLV      3641            0.0000000000
     10826      3582  TIP3      OH2            28.8313064810       27.6655167438       41.1084218360  SOLV      3642            0.0000000000
     10827      3582  TIP3      H1             28.1198564810       28.2004867438       40.7564718360  SOLV      3642            0.0000000000
     10828      3582  TIP3      H2             29.5222664810       27.7207267438       40.4483118360  SOLV      3642            0.0000000000
     10829      3583  TIP3      OH2            28.8852264810       26.1229467438       38.1469218360  SOLV      3643            0.0000000000
     10830      3583  TIP3      H1             29.5862164810       26.1456367438       38.7983218360  SOLV      3643            0.0000000000
     10831      3583  TIP3      H2             29.1875164810       25.4949167438       37.4908518360  SOLV      3643            0.0000000000
     10832      3584  TIP3      OH2            36.2006964810       27.0433667438       49.4018618360  SOLV      3644            0.0000000000
     10833      3584  TIP3      H1             35.5481064810       27.7379267438       49.4909518360  SOLV      3644            0.0000000000
     10834      3584  TIP3      H2             36.6657264810       27.2534567438       48.5920218360  SOLV      3644            0.0000000000
     10835      3585  TIP3      OH2            32.2370764810       27.8748467438       42.0600118360  SOLV      3645            0.0000000000
     10836      3585  TIP3      H1             31.5051764810       28.1032167438       42.6330718360  SOLV      3645            0.0000000000
     10837      3585  TIP3      H2             32.6842964810       27.1611167438       42.5147618360  SOLV      3645            0.0000000000
     10838      3586  TIP3      OH2            23.8824464810       28.5054667438       43.9425118360  SOLV      3646            0.0000000000
     10839      3586  TIP3      H1             23.5519664810       28.1348067438       43.1242118360  SOLV      3646            0.0000000000
     10840      3586  TIP3      H2             24.4708564810       27.8348667438       44.2893418360  SOLV      3646            0.0000000000
     10841      3587  TIP3      OH2            25.2491964810       31.9335267438       46.6237318360  SOLV      3647            0.0000000000
     10842      3587  TIP3      H1             25.1543264810       31.3548367438       45.8671918360  SOLV      3647            0.0000000000
     10843      3587  TIP3      H2             25.9785564810       31.5620967438       47.1200118360  SOLV      3647            0.0000000000
     10844      3588  TIP3      OH2            24.2489964810       27.2740267438       47.5760118360  SOLV      3648            0.0000000000
     10845      3588  TIP3      H1             24.8142464810       27.3954467438       46.8131318360  SOLV      3648            0.0000000000
     10846      3588  TIP3      H2             24.5678864810       27.9115267438       48.2148618360  SOLV      3648            0.0000000000
     10847      3589  TIP3      OH2            30.5582164810       32.7772167438       48.3100618360  SOLV      3649            0.0000000000
     10848      3589  TIP3      H1             30.3178764810       33.4395267438       48.9579818360  SOLV      3649            0.0000000000
     10849      3589  TIP3      H2             30.3600364810       31.9427367438       48.7350218360  SOLV      3649            0.0000000000
     10850      3590  TIP3      OH2            31.1080264810       27.0371367438       39.7451318360  SOLV      3650            0.0000000000
     10851      3590  TIP3      H1             31.6875764810       27.1871667438       40.4920218360  SOLV      3650            0.0000000000
     10852      3590  TIP3      H2             31.5220264810       27.5078767438       39.0217718360  SOLV      3650            0.0000000000
     10853      3591  TIP3      OH2            28.8345164810       33.7739867438       43.1804418360  SOLV      3651            0.0000000000
     10854      3591  TIP3      H1             29.3082764810       34.0696167438       43.9578618360  SOLV      3651            0.0000000000
     10855      3591  TIP3      H2             28.2714464810       34.5121467438       42.9474018360  SOLV      3651            0.0000000000
     10856      3592  TIP3      OH2            34.8068664810       18.7871767438       39.5581018360  SOLV      3652            0.0000000000
     10857      3592  TIP3      H1             33.9069364810       18.9260767438       39.8531618360  SOLV      3652            0.0000000000
     10858      3592  TIP3      H2             35.0587064810       19.6186367438       39.1562718360  SOLV      3652            0.0000000000
     10859      3593  TIP3      OH2            22.8727164810       27.5748967438       41.5317918360  SOLV      3653            0.0000000000
     10860      3593  TIP3      H1             22.5808464810       28.3430667438       41.0409218360  SOLV      3653            0.0000000000
     10861      3593  TIP3      H2             22.1982364810       26.9155167438       41.3689318360  SOLV      3653            0.0000000000
     10862      3594  TIP3      OH2            35.9960064810       33.1534167438       37.9344918360  SOLV      3654            0.0000000000
     10863      3594  TIP3      H1             36.0693564810       34.0924367438       38.1050218360  SOLV      3654            0.0000000000
     10864      3594  TIP3      H2             36.9015164810       32.8482767438       37.8782218360  SOLV      3654            0.0000000000
     10865      3595  TIP3      OH2            18.7159964810       32.7181967438       47.2307918360  SOLV      3655            0.0000000000
     10866      3595  TIP3      H1             19.6620564810       32.5738967438       47.2117418360  SOLV      3655            0.0000000000
     10867      3595  TIP3      H2             18.6036264810       33.5024767438       47.7679118360  SOLV      3655            0.0000000000
     10868      3596  TIP3      OH2            28.3068264810       36.7304567438       41.5953618360  SOLV      3656            0.0000000000
     10869      3596  TIP3      H1             28.2314264810       36.6091767438       40.6488818360  SOLV      3656            0.0000000000
     10870      3596  TIP3      H2             28.3396964810       37.6797267438       41.7138218360  SOLV      3656            0.0000000000
     10871      3597  TIP3      OH2            21.9602064810       35.5191567438       43.3762618360  SOLV      3657            0.0000000000
     10872      3597  TIP3      H1             22.1122464810       35.1711967438       44.2549118360  SOLV      3657            0.0000000000
     10873      3597  TIP3      H2             21.1092464810       35.1628867438       43.1209818360  SOLV      3657            0.0000000000
     10874      3598  TIP3      OH2            31.4084264810       35.8844767438       38.5976018360  SOLV      3658            0.0000000000
     10875      3598  TIP3      H1             31.7832664810       35.1400867438       38.1268618360  SOLV      3658            0.0000000000
     10876      3598  TIP3      H2             31.4127964810       35.6145367438       39.5159318360  SOLV      3658            0.0000000000
     10877      3599  TIP3      OH2            31.0772364810       35.8101867438       41.3468218360  SOLV      3659            0.0000000000
     10878      3599  TIP3      H1             30.1422164810       35.9103767438       41.5255218360  SOLV      3659            0.0000000000
     10879      3599  TIP3      H2             31.3574264810       35.1007867438       41.9251418360  SOLV      3659            0.0000000000
     10880      3600  TIP3      OH2            23.8335764810       19.7314067438       47.3854718360  SOLV      3660            0.0000000000
     10881      3600  TIP3      H1             22.9719464810       19.6442267438       46.9777618360  SOLV      3660            0.0000000000
     10882      3600  TIP3      H2             23.8111464810       20.5874167438       47.8132318360  SOLV      3660            0.0000000000
     10883      3601  TIP3      OH2            32.5853364810       28.0699667438       37.3749218360  SOLV      3661            0.0000000000
     10884      3601  TIP3      H1             32.6274164810       27.8473567438       36.4449218360  SOLV      3661            0.0000000000
     10885      3601  TIP3      H2             33.4345464810       28.4686767438       37.5649118360  SOLV      3661            0.0000000000
     10886      3602  TIP3      OH2            28.1580864810       21.9457867438       38.0452518360  SOLV      3662            0.0000000000
     10887      3602  TIP3      H1             27.9045664810       21.9649467438       38.9680618360  SOLV      3662            0.0000000000
     10888      3602  TIP3      H2             27.9012964810       21.0743267438       37.7438718360  SOLV      3662            0.0000000000
     10889      3603  TIP3      OH2            23.9245864810       24.6968567438       48.4804918360  SOLV      3663            0.0000000000
     10890      3603  TIP3      H1             23.2827964810       24.6565867438       49.1895018360  SOLV      3663            0.0000000000
     10891      3603  TIP3      H2             23.9617864810       25.6233267438       48.2427918360  SOLV      3663            0.0000000000
     10892      3604  TIP3      OH2            23.9214964810       24.9178667438       43.3924918360  SOLV      3664            0.0000000000
     10893      3604  TIP3      H1             23.0287864810       24.5774767438       43.3338718360  SOLV      3664            0.0000000000
     10894      3604  TIP3      H2             24.3721564810       24.5409567438       42.6368118360  SOLV      3664            0.0000000000
     10895      3605  TIP3      OH2            29.4570464810       25.3338967438       42.2095718360  SOLV      3665            0.0000000000
     10896      3605  TIP3      H1             29.0480764810       26.1487567438       41.9180518360  SOLV      3665            0.0000000000
     10897      3605  TIP3      H2             30.1776664810       25.1939067438       41.5952818360  SOLV      3665            0.0000000000
     10898      3606  TIP3      OH2            30.4618164810       24.7799367438       45.0235418360  SOLV      3666            0.0000000000
     10899      3606  TIP3      H1             30.2662664810       25.3856167438       44.3086018360  SOLV      3666            0.0000000000
     10900      3606  TIP3      H2             30.6430764810       23.9464567438       44.5891718360  SOLV      3666            0.0000000000
     10901      3607  TIP3      OH2            25.0403764810       22.3914367438       37.1462918360  SOLV      3667            0.0000000000
     10902      3607  TIP3      H1             24.6094464810       21.9464467438       37.8760318360  SOLV      3667            0.0000000000
     10903      3607  TIP3      H2             24.3222464810       22.7630667438       36.6340418360  SOLV      3667            0.0000000000
     10904      3608  TIP3      OH2            18.2827164810       22.1333867438       44.1981618360  SOLV      3668            0.0000000000
     10905      3608  TIP3      H1             18.9134864810       22.1045967438       44.9175518360  SOLV      3668            0.0000000000
     10906      3608  TIP3      H2             18.7321464810       21.7082567438       43.4677518360  SOLV      3668            0.0000000000
     10907      3609  TIP3      OH2            19.5569264810       22.8795867438       39.6222018360  SOLV      3669            0.0000000000
     10908      3609  TIP3      H1             20.0310964810       23.4705767438       39.0372918360  SOLV      3669            0.0000000000
     10909      3609  TIP3      H2             18.8395664810       23.4098767438       39.9692118360  SOLV      3669            0.0000000000
     10910      3610  TIP3      OH2            29.7257364810       26.4180667438       49.6947818360  SOLV      3670            0.0000000000
     10911      3610  TIP3      H1             30.0492164810       25.7870367438       49.0518318360  SOLV      3670            0.0000000000
     10912      3610  TIP3      H2             29.2856664810       25.8832867438       50.3555218360  SOLV      3670            0.0000000000
     10913      3611  TIP3      OH2            26.5030264810       22.3456167438       44.4789018360  SOLV      3671            0.0000000000
     10914      3611  TIP3      H1             25.5921364810       22.4022967438       44.7675018360  SOLV      3671            0.0000000000
     10915      3611  TIP3      H2             27.0083164810       22.2851667438       45.2896218360  SOLV      3671            0.0000000000
     10916      3612  TIP3      OH2            21.3313664810       23.9742467438       43.3056618360  SOLV      3672            0.0000000000
     10917      3612  TIP3      H1             20.4421664810       24.0737967438       42.9656218360  SOLV      3672            0.0000000000
     10918      3612  TIP3      H2             21.6278564810       23.1325467438       42.9594518360  SOLV      3672            0.0000000000
     10919      3613  TIP3      OH2            24.9845464810       23.9745067438       40.9621218360  SOLV      3673            0.0000000000
     10920      3613  TIP3      H1             25.9160964810       24.1035067438       41.1404318360  SOLV      3673            0.0000000000
     10921      3613  TIP3      H2             24.7695764810       24.6439367438       40.3125918360  SOLV      3673            0.0000000000
     10922      3614  TIP3      OH2            30.9082164810       21.5802467438       47.7430818360  SOLV      3674            0.0000000000
     10923      3614  TIP3      H1             30.2313764810       21.7115567438       48.4070518360  SOLV      3674            0.0000000000
     10924      3614  TIP3      H2             30.4227064810       21.4251967438       46.9328518360  SOLV      3674            0.0000000000
     10925      3615  TIP3      OH2            23.6585664810       25.1687267438       38.5287318360  SOLV      3675            0.0000000000
     10926      3615  TIP3      H1             23.1160764810       24.7891067438       37.8374918360  SOLV      3675            0.0000000000
     10927      3615  TIP3      H2             24.4920564810       25.3631967438       38.1001418360  SOLV      3675            0.0000000000
     10928      3616  TIP3      OH2            27.8229964810       25.1329167438       46.3658618360  SOLV      3676            0.0000000000
     10929      3616  TIP3      H1             28.3873364810       24.5865767438       45.8188218360  SOLV      3676            0.0000000000
     10930      3616  TIP3      H2             27.6753364810       24.6111067438       47.1546218360  SOLV      3676            0.0000000000
     10931      3617  TIP3      OH2            22.8249664810       21.2695267438       42.7843418360  SOLV      3677            0.0000000000
     10932      3617  TIP3      H1             22.5079164810       20.3670567438       42.7488818360  SOLV      3677            0.0000000000
     10933      3617  TIP3      H2             23.6063764810       21.2712667438       42.2315018360  SOLV      3677            0.0000000000
     10934      3618  TIP3      OH2            26.4495864810       23.5215267438       48.7799018360  SOLV      3678            0.0000000000
     10935      3618  TIP3      H1             25.6141164810       23.9754767438       48.8901418360  SOLV      3678            0.0000000000
     10936      3618  TIP3      H2             26.9736464810       23.7973767438       49.5318918360  SOLV      3678            0.0000000000
     10937      3619  TIP3      OH2            26.9938464810       29.7342967438       40.4645418360  SOLV      3679            0.0000000000
     10938      3619  TIP3      H1             26.2489464810       29.2268267438       40.1423318360  SOLV      3679            0.0000000000
     10939      3619  TIP3      H2             26.8595664810       29.7830967438       41.4110218360  SOLV      3679            0.0000000000
     10940      3620  TIP3      OH2            34.1437364810       28.8671167438       49.2513018360  SOLV      3680            0.0000000000
     10941      3620  TIP3      H1             34.7856164810       29.3237467438       48.7075218360  SOLV      3680            0.0000000000
     10942      3620  TIP3      H2             33.3134264810       28.9803567438       48.7887118360  SOLV      3680            0.0000000000
     10943      3621  TIP3      OH2            30.8915264810       22.5482867438       38.6638018360  SOLV      3681            0.0000000000
     10944      3621  TIP3      H1             29.9529464810       22.6598467438       38.5126818360  SOLV      3681            0.0000000000
     10945      3621  TIP3      H2             31.1887364810       23.4049767438       38.9703718360  SOLV      3681            0.0000000000
     10946      3622  TIP3      OH2            31.6098764810       24.4155567438       40.3245418360  SOLV      3682            0.0000000000
     10947      3622  TIP3      H1             32.5017764810       24.2780567438       40.6436618360  SOLV      3682            0.0000000000
     10948      3622  TIP3      H2             31.6662364810       25.2061667438       39.7878918360  SOLV      3682            0.0000000000
     10949      3623  TIP3      OH2            22.1186764810       29.0292967438       46.2343318360  SOLV      3683            0.0000000000
     10950      3623  TIP3      H1             22.8633964810       29.0268667438       45.6329818360  SOLV      3683            0.0000000000
     10951      3623  TIP3      H2             22.1963364810       28.2056767438       46.7158418360  SOLV      3683            0.0000000000
     10952      3624  TIP3      OH2            29.1192564810       31.1927267438       39.4900018360  SOLV      3684            0.0000000000
     10953      3624  TIP3      H1             28.8240964810       32.0195167438       39.8714818360  SOLV      3684            0.0000000000
     10954      3624  TIP3      H2             28.4162564810       30.5734167438       39.6861418360  SOLV      3684            0.0000000000
     10955      3625  TIP3      OH2            36.4947464810       24.6249667438       40.0192118360  SOLV      3685            0.0000000000
     10956      3625  TIP3      H1             35.9403764810       24.2287667438       39.3469618360  SOLV      3685            0.0000000000
     10957      3625  TIP3      H2             36.5951064810       25.5354867438       39.7415418360  SOLV      3685            0.0000000000
     10958      3626  TIP3      OH2            34.7899164810       33.4110067438       40.4844218360  SOLV      3686            0.0000000000
     10959      3626  TIP3      H1             34.4170264810       32.5853867438       40.7934818360  SOLV      3686            0.0000000000
     10960      3626  TIP3      H2             35.0672664810       33.2279467438       39.5867618360  SOLV      3686            0.0000000000
     10961      3627  TIP3      OH2            31.9503064810       28.2189567438       47.5056118360  SOLV      3687            0.0000000000
     10962      3627  TIP3      H1             31.0219964810       27.9871467438       47.4785418360  SOLV      3687            0.0000000000
     10963      3627  TIP3      H2             32.4014164810       27.4419367438       47.1754918360  SOLV      3687            0.0000000000
     10964      3628  TIP3      OH2            24.4936164810       32.5471167438       43.6384818360  SOLV      3688            0.0000000000
     10965      3628  TIP3      H1             25.0208364810       33.3205567438       43.4383618360  SOLV      3688            0.0000000000
     10966      3628  TIP3      H2             23.6134664810       32.7720367438       43.3368818360  SOLV      3688            0.0000000000
     10967      3629  TIP3      OH2            20.2483864810       27.4095267438       38.2257218360  SOLV      3689            0.0000000000
     10968      3629  TIP3      H1             20.8643764810       28.0362467438       38.6052018360  SOLV      3689            0.0000000000
     10969      3629  TIP3      H2             19.3866464810       27.7255067438       38.4973718360  SOLV      3689            0.0000000000
     10970      3630  TIP3      OH2            25.9208464810       30.2101067438       43.2149118360  SOLV      3690            0.0000000000
     10971      3630  TIP3      H1             25.6798464810       31.1355467438       43.2564418360  SOLV      3690            0.0000000000
     10972      3630  TIP3      H2             25.1802064810       29.7512367438       43.6113018360  SOLV      3690            0.0000000000
     10973      3631  TIP3      OH2            26.4355064810       34.3594667438       49.5300218360  SOLV      3691            0.0000000000
     10974      3631  TIP3      H1             26.7979764810       35.2140267438       49.2964618360  SOLV      3691            0.0000000000
     10975      3631  TIP3      H2             26.9670264810       34.0676267438       50.2706518360  SOLV      3691            0.0000000000
     10976      3632  TIP3      OH2            24.6039264810       35.2318667438       42.7601318360  SOLV      3692            0.0000000000
     10977      3632  TIP3      H1             23.6539764810       35.3376067438       42.8114618360  SOLV      3692            0.0000000000
     10978      3632  TIP3      H2             24.9557364810       36.0526067438       43.1048818360  SOLV      3692            0.0000000000
     10979      3633  TIP3      OH2            29.9795864810       30.4585367438       49.2305818360  SOLV      3693            0.0000000000
     10980      3633  TIP3      H1             29.5537164810       30.2307067438       50.0569818360  SOLV      3693            0.0000000000
     10981      3633  TIP3      H2             30.5601664810       29.7197167438       49.0481118360  SOLV      3693            0.0000000000
     10982      3634  TIP3      OH2            32.1824764810       31.3875867438       38.3044818360  SOLV      3694            0.0000000000
     10983      3634  TIP3      H1             32.5357864810       31.0075667438       39.1088318360  SOLV      3694            0.0000000000
     10984      3634  TIP3      H2             31.2338264810       31.2940667438       38.3914118360  SOLV      3694            0.0000000000
     10985      3635  TIP3      OH2            36.6859164810       35.8668367438       38.5055018360  SOLV      3695            0.0000000000
     10986      3635  TIP3      H1             37.4297064810       36.4528867438       38.3656618360  SOLV      3695            0.0000000000
     10987      3635  TIP3      H2             35.9917264810       36.4354167438       38.8387418360  SOLV      3695            0.0000000000
     10988      3636  TIP3      OH2            33.0484064810       30.0597867438       40.5312718360  SOLV      3696            0.0000000000
     10989      3636  TIP3      H1             32.7711664810       29.3317167438       41.0873818360  SOLV      3696            0.0000000000
     10990      3636  TIP3      H2             33.9757064810       30.1789867438       40.7365318360  SOLV      3696            0.0000000000
     10991      3637  TIP3      OH2            20.4117964810       34.0476967438       49.5422618360  SOLV      3697            0.0000000000
     10992      3637  TIP3      H1             20.6288264810       33.1159367438       49.5112318360  SOLV      3697            0.0000000000
     10993      3637  TIP3      H2             20.6581464810       34.3221967438       50.4255418360  SOLV      3697            0.0000000000
     10994      3638  TIP3      OH2            26.2732564810       32.4991967438       36.7514818360  SOLV      3698            0.0000000000
     10995      3638  TIP3      H1             26.5122364810       31.7510067438       36.2043718360  SOLV      3698            0.0000000000
     10996      3638  TIP3      H2             26.0043864810       32.1113667438       37.5842618360  SOLV      3698            0.0000000000
     10997      3639  TIP3      OH2            25.2103164810       32.0695767438       39.2077418360  SOLV      3699            0.0000000000
     10998      3639  TIP3      H1             25.3571164810       31.5495567438       39.9978318360  SOLV      3699            0.0000000000
     10999      3639  TIP3      H2             25.2074864810       32.9763367438       39.5143318360  SOLV      3699            0.0000000000
     11000      3640  TIP3      OH2            21.6634264810       29.3219067438       39.7182818360  SOLV      3700            0.0000000000
     11001      3640  TIP3      H1             20.9773564810       29.6741567438       40.2852518360  SOLV      3700            0.0000000000
     11002      3640  TIP3      H2             22.1862164810       30.0848667438       39.4717118360  SOLV      3700            0.0000000000
     11003      3641  TIP3      OH2            30.2794264810       21.6364567438       41.0944118360  SOLV      3701            0.0000000000
     11004      3641  TIP3      H1             30.4992564810       22.1079967438       40.2909518360  SOLV      3701            0.0000000000
     11005      3641  TIP3      H2             30.8378264810       22.0307167438       41.7644718360  SOLV      3701            0.0000000000
     11006      3642  TIP3      OH2            27.9480364810       33.7669367438       39.9571618360  SOLV      3702            0.0000000000
     11007      3642  TIP3      H1             27.1316464810       34.2639067438       40.0095918360  SOLV      3702            0.0000000000
     11008      3642  TIP3      H2             28.4776664810       34.2422867438       39.3170418360  SOLV      3702            0.0000000000
     11009      3643  TIP3      OH2            27.4794164810       23.3643367438       41.9292518360  SOLV      3703            0.0000000000
     11010      3643  TIP3      H1             28.2916764810       23.8686567438       41.9754218360  SOLV      3703            0.0000000000
     11011      3643  TIP3      H2             27.2347164810       23.2193067438       42.8432118360  SOLV      3703            0.0000000000
     11012      3644  TIP3      OH2            28.3630864810       20.4456367438       42.8673618360  SOLV      3704            0.0000000000
     11013      3644  TIP3      H1             28.0164364810       21.0626967438       43.5117918360  SOLV      3704            0.0000000000
     11014      3644  TIP3      H2             29.0217764810       20.9462067438       42.3859118360  SOLV      3704            0.0000000000
     11015      3645  TIP3      OH2            25.2863464810       34.8106567438       39.9388518360  SOLV      3705            0.0000000000
     11016      3645  TIP3      H1             25.4472164810       35.6104067438       39.4381118360  SOLV      3705            0.0000000000
     11017      3645  TIP3      H2             25.0891264810       35.1172567438       40.8239118360  SOLV      3705            0.0000000000
     11018      3646  TIP3      OH2            24.0207864810       21.5085767438       39.5546118360  SOLV      3706            0.0000000000
     11019      3646  TIP3      H1             23.9372664810       22.3968867438       39.9012518360  SOLV      3706            0.0000000000
     11020      3646  TIP3      H2             24.9108164810       21.2432467438       39.7862918360  SOLV      3706            0.0000000000
     11021      3647  TIP3      OH2            32.8217364810       26.0077367438       46.0446118360  SOLV      3707            0.0000000000
     11022      3647  TIP3      H1             32.0241764810       25.5927567438       45.7161118360  SOLV      3707            0.0000000000
     11023      3647  TIP3      H2             33.2668464810       25.3171067438       46.5356618360  SOLV      3707            0.0000000000
     11024      3648  TIP3      OH2            22.2793164810       31.9357967438       38.6150618360  SOLV      3708            0.0000000000
     11025      3648  TIP3      H1             22.8714664810       32.6352767438       38.8913018360  SOLV      3708            0.0000000000
     11026      3648  TIP3      H2             22.7386164810       31.5027467438       37.8955218360  SOLV      3708            0.0000000000
     11027      3649  TIP3      OH2            20.5952364810       24.6000967438       37.7310018360  SOLV      3709            0.0000000000
     11028      3649  TIP3      H1             20.5504964810       25.5394067438       37.9097018360  SOLV      3709            0.0000000000
     11029      3649  TIP3      H2             19.7075564810       24.3645867438       37.4612118360  SOLV      3709            0.0000000000
     11030      3650  TIP3      OH2            33.9081964810       35.2639867438       47.6669618360  SOLV      3710            0.0000000000
     11031      3650  TIP3      H1             33.7526264810       35.9424267438       47.0098918360  SOLV      3710            0.0000000000
     11032      3650  TIP3      H2             34.8408364810       35.3359167438       47.8700218360  SOLV      3710            0.0000000000
     11033      3651  TIP3      OH2            21.4034364810       19.3817567438       46.4041018360  SOLV      3711            0.0000000000
     11034      3651  TIP3      H1             21.1744164810       19.4410067438       45.4766018360  SOLV      3711            0.0000000000
     11035      3651  TIP3      H2             20.9607764810       18.5903067438       46.7105118360  SOLV      3711            0.0000000000
     11036      3652  TIP3      OH2            20.3337664810       33.3224667438       42.5646818360  SOLV      3712            0.0000000000
     11037      3652  TIP3      H1             19.5016264810       33.7947367438       42.5918218360  SOLV      3712            0.0000000000
     11038      3652  TIP3      H2             20.8795964810       33.8322267438       41.9659918360  SOLV      3712            0.0000000000
     11039      3653  TIP3      OH2            28.3114364810       34.3623367438       36.8900818360  SOLV      3713            0.0000000000
     11040      3653  TIP3      H1             27.6675364810       33.7311967438       37.2114518360  SOLV      3713            0.0000000000
     11041      3653  TIP3      H2             29.0732664810       33.8311367438       36.6584318360  SOLV      3713            0.0000000000
     11042      3654  TIP3      OH2            32.9157264810       34.1793267438       37.1238818360  SOLV      3714            0.0000000000
     11043      3654  TIP3      H1             33.1987664810       33.3848467438       37.5765718360  SOLV      3714            0.0000000000
     11044      3654  TIP3      H2             33.6555164810       34.4124267438       36.5629918360  SOLV      3714            0.0000000000
     11045      3655  TIP3      OH2            23.8704564810       30.0888167438       36.9813718360  SOLV      3715            0.0000000000
     11046      3655  TIP3      H1             23.9348664810       29.2947767438       37.5120118360  SOLV      3715            0.0000000000
     11047      3655  TIP3      H2             24.5233764810       29.9700967438       36.2915718360  SOLV      3715            0.0000000000
     11048      3656  TIP3      OH2            29.2227964810       31.1359867438       36.7171718360  SOLV      3716            0.0000000000
     11049      3656  TIP3      H1             28.9542064810       31.3161967438       37.6180618360  SOLV      3716            0.0000000000
     11050      3656  TIP3      H2             29.0163564810       30.2106067438       36.5857518360  SOLV      3716            0.0000000000
     11051      3657  TIP3      OH2            25.0198364810       28.0614367438       39.2871718360  SOLV      3717            0.0000000000
     11052      3657  TIP3      H1             24.5600364810       27.5772667438       39.9730218360  SOLV      3717            0.0000000000
     11053      3657  TIP3      H2             25.2747064810       27.3929767438       38.6512218360  SOLV      3717            0.0000000000
     11054      3658  TIP3      OH2            26.0908764810       26.3046167438       37.5494918360  SOLV      3718            0.0000000000
     11055      3658  TIP3      H1             25.9103764810       26.1497367438       36.6223218360  SOLV      3718            0.0000000000
     11056      3658  TIP3      H2             27.0409264810       26.4124867438       37.5942818360  SOLV      3718            0.0000000000
     11057      3659  TIP3      OH2            35.4807064810       28.6590367438       36.9953018360  SOLV      3719            0.0000000000
     11058      3659  TIP3      H1             35.2071864810       28.2345867438       36.1821318360  SOLV      3719            0.0000000000
     11059      3659  TIP3      H2             35.5201164810       29.5904867438       36.7783418360  SOLV      3719            0.0000000000
     11060      3660  TIP3      OH2            25.9880464810       36.9949867438       38.5508518360  SOLV      3720            0.0000000000
     11061      3660  TIP3      H1             26.9211164810       37.1528567438       38.6946918360  SOLV      3720            0.0000000000
     11062      3660  TIP3      H2             25.7239264810       37.6702867438       37.9260018360  SOLV      3720            0.0000000000
     11063      3661  TIP3      OH2            19.5565364810       31.6313667438       38.0336618360  SOLV      3721            0.0000000000
     11064      3661  TIP3      H1             20.4704564810       31.7102567438       38.3070518360  SOLV      3721            0.0000000000
     11065      3661  TIP3      H2             19.5638464810       30.9443267438       37.3672218360  SOLV      3721            0.0000000000
     11066      3662  TIP3      OH2            18.2055964810       37.0242167438       43.1110518360  SOLV      3722            0.0000000000
     11067      3662  TIP3      H1             17.5583064810       36.5623867438       42.5781718360  SOLV      3722            0.0000000000
     11068      3662  TIP3      H2             18.5600564810       36.3525467438       43.6936718360  SOLV      3722            0.0000000000
     11069      3663  TIP3      OH2            19.0755164810       35.1049167438       44.9156718360  SOLV      3723            0.0000000000
     11070      3663  TIP3      H1             18.7411964810       34.2246467438       45.0876918360  SOLV      3723            0.0000000000
     11071      3663  TIP3      H2             19.2977564810       35.4504167438       45.7802318360  SOLV      3723            0.0000000000
     11072      3664  TIP3      OH2            36.6239964810       35.9145567438       47.8961518360  SOLV      3724            0.0000000000
     11073      3664  TIP3      H1             36.6026664810       36.0993967438       48.8350918360  SOLV      3724            0.0000000000
     11074      3664  TIP3      H2             37.3146164810       36.4829567438       47.5552918360  SOLV      3724            0.0000000000
     11075      3665  TIP3      OH2            35.9389864810       29.5278467438       40.9703418360  SOLV      3725            0.0000000000
     11076      3665  TIP3      H1             36.7891264810       29.9489367438       41.0975018360  SOLV      3725            0.0000000000
     11077      3665  TIP3      H2             35.9444964810       28.7878567438       41.5774818360  SOLV      3725            0.0000000000
     11078      3666  TIP3      OH2            36.3335464810       27.5815867438       42.7939118360  SOLV      3726            0.0000000000
     11079      3666  TIP3      H1             35.6070064810       27.1018467438       43.1916718360  SOLV      3726            0.0000000000
     11080      3666  TIP3      H2             36.9148764810       27.7870567438       43.5260718360  SOLV      3726            0.0000000000
     11081      3667  TIP3      OH2            36.0926664810       30.3663367438       47.7416718360  SOLV      3727            0.0000000000
     11082      3667  TIP3      H1             36.9260864810       29.9883367438       47.4610318360  SOLV      3727            0.0000000000
     11083      3667  TIP3      H2             36.2046964810       31.3094567438       47.6225818360  SOLV      3727            0.0000000000
     11084      3668  TIP3      OH2            36.6018564810       27.4824367438       39.1850418360  SOLV      3728            0.0000000000
     11085      3668  TIP3      H1             36.0799664810       27.8388467438       38.4661318360  SOLV      3728            0.0000000000
     11086      3668  TIP3      H2             36.5687764810       28.1572167438       39.8631318360  SOLV      3728            0.0000000000
     11087      3669  TIP3      OH2            34.9507564810       24.7219967438       37.7357518360  SOLV      3729            0.0000000000
     11088      3669  TIP3      H1             35.0471964810       25.3886967438       37.0557218360  SOLV      3729            0.0000000000
     11089      3669  TIP3      H2             34.8107164810       23.9066267438       37.2543018360  SOLV      3729            0.0000000000
     11090      3670  TIP3      OH2            34.1202264810       26.1022367438       43.3567818360  SOLV      3730            0.0000000000
     11091      3670  TIP3      H1             33.9701064810       25.1570967438       43.3365618360  SOLV      3730            0.0000000000
     11092      3670  TIP3      H2             33.7666764810       26.3833767438       44.2006918360  SOLV      3730            0.0000000000
     11093      3671  TIP3      OH2            19.1554664810       28.1804567438       47.3671618360  SOLV      3731            0.0000000000
     11094      3671  TIP3      H1             19.3397564810       28.0986267438       46.4314518360  SOLV      3731            0.0000000000
     11095      3671  TIP3      H2             20.0047564810       28.0561567438       47.7908018360  SOLV      3731            0.0000000000
     11096      3672  TIP3      OH2            34.1981364810       22.1299767438       36.8533018360  SOLV      3732            0.0000000000
     11097      3672  TIP3      H1             34.8087164810       21.7586567438       37.4901218360  SOLV      3732            0.0000000000
     11098      3672  TIP3      H2             33.3612864810       21.7086667438       37.0493018360  SOLV      3732            0.0000000000
     11099      3673  TIP3      OH2            33.8307064810       23.6848167438       41.8192918360  SOLV      3733            0.0000000000
     11100      3673  TIP3      H1             34.1104164810       22.7778567438       41.9434618360  SOLV      3733            0.0000000000
     11101      3673  TIP3      H2             34.5898764810       24.1189667438       41.4302118360  SOLV      3733            0.0000000000
     11102      3674  TIP3      OH2            34.4425364810       24.2665567438       47.2551818360  SOLV      3734            0.0000000000
     11103      3674  TIP3      H1             35.3753364810       24.4785467438       47.2207818360  SOLV      3734            0.0000000000
     11104      3674  TIP3      H2             34.2072864810       24.3677667438       48.1774818360  SOLV      3734            0.0000000000
     11105      3675  TIP3      OH2            34.4441864810       20.9477467438       41.8674918360  SOLV      3735            0.0000000000
     11106      3675  TIP3      H1             34.6266864810       20.4988967438       42.6929918360  SOLV      3735            0.0000000000
     11107      3675  TIP3      H2             33.8444764810       20.3631867438       41.4039518360  SOLV      3735            0.0000000000
     11108      3676  TIP3      OH2            19.9741964810       21.7631167438       46.3993318360  SOLV      3736            0.0000000000
     11109      3676  TIP3      H1             20.4193564810       20.9713667438       46.7013018360  SOLV      3736            0.0000000000
     11110      3676  TIP3      H2             20.4404964810       22.4796367438       46.8298918360  SOLV      3736            0.0000000000
     11111      3677  TIP3      OH2            18.2782264810       24.7624167438       47.4683518360  SOLV      3737            0.0000000000
     11112      3677  TIP3      H1             18.7702064810       24.5414667438       46.6775518360  SOLV      3737            0.0000000000
     11113      3677  TIP3      H2             18.6403164810       25.6027567438       47.7493018360  SOLV      3737            0.0000000000
     11114      3678  TIP3      OH2            36.3108064810       21.0155567438       38.3955218360  SOLV      3738            0.0000000000
     11115      3678  TIP3      H1             36.7230664810       20.2941267438       37.9203218360  SOLV      3738            0.0000000000
     11116      3678  TIP3      H2             36.9924564810       21.6850167438       38.4539518360  SOLV      3738            0.0000000000
     11117      3679  TIP3      OH2            18.5918764810       21.0203267438       41.5225918360  SOLV      3739            0.0000000000
     11118      3679  TIP3      H1             17.6667164810       21.2289867438       41.3931418360  SOLV      3739            0.0000000000
     11119      3679  TIP3      H2             19.0458664810       21.5044067438       40.8328218360  SOLV      3739            0.0000000000
     11120      3680  TIP3      OH2            33.3625964810       36.0044967438       43.4683318360  SOLV      3740            0.0000000000
     11121      3680  TIP3      H1             34.0148864810       35.6567067438       42.8602418360  SOLV      3740            0.0000000000
     11122      3680  TIP3      H2             33.8729764810       36.4928167438       44.1143018360  SOLV      3740            0.0000000000
     11123      3681  TIP3      OH2            18.5554164810       19.7582267438       49.8668418360  SOLV      3741            0.0000000000
     11124      3681  TIP3      H1             17.8904664810       19.5122567438       50.5099318360  SOLV      3741            0.0000000000
     11125      3681  TIP3      H2             18.1125464810       20.3802667438       49.2896418360  SOLV      3741            0.0000000000
     11126      3682  TIP3      OH2            23.5705664810       36.7645367438       49.3470718360  SOLV      3742            0.0000000000
     11127      3682  TIP3      H1             22.7057864810       36.8363867438       49.7510818360  SOLV      3742            0.0000000000
     11128      3682  TIP3      H2             23.5154664810       37.3112667438       48.5633218360  SOLV      3742            0.0000000000
     11129      3683  TIP3      OH2            28.2811264810       36.6524267438       48.5226718360  SOLV      3743            0.0000000000
     11130      3683  TIP3      H1             27.8245264810       37.1813967438       47.8685118360  SOLV      3743            0.0000000000
     11131      3683  TIP3      H2             28.4439264810       37.2555667438       49.2479018360  SOLV      3743            0.0000000000
     11132      3684  TIP3      OH2            30.6087564810       35.5303867438       49.4677018360  SOLV      3744            0.0000000000
     11133      3684  TIP3      H1             29.7041264810       35.6954067438       49.2019118360  SOLV      3744            0.0000000000
     11134      3684  TIP3      H2             31.0376164810       36.3836067438       49.4020418360  SOLV      3744            0.0000000000
     11135      3685  TIP3      OH2            33.2129464810       37.1002967438       49.7624818360  SOLV      3745            0.0000000000
     11136      3685  TIP3      H1             33.0311464810       38.0161867438       49.5519718360  SOLV      3745            0.0000000000
     11137      3685  TIP3      H2             33.3897264810       36.6900067438       48.9159418360  SOLV      3745            0.0000000000
     11138      3686  TIP3      OH2            20.5181164810       35.7873967438       47.2275318360  SOLV      3746            0.0000000000
     11139      3686  TIP3      H1             20.4997164810       35.3619067438       48.0847618360  SOLV      3746            0.0000000000
     11140      3686  TIP3      H2             21.3229064810       35.4688967438       46.8187518360  SOLV      3746            0.0000000000
     11141      3687  TIP3      OH2            22.6594264810       34.4972667438       45.8825218360  SOLV      3747            0.0000000000
     11142      3687  TIP3      H1             22.4404964810       33.5810067438       46.0521218360  SOLV      3747            0.0000000000
     11143      3687  TIP3      H2             23.4836464810       34.6373067438       46.3486618360  SOLV      3747            0.0000000000
     11144      3688  TIP3      OH2            25.1966764810       34.9671967438       46.7313218360  SOLV      3748            0.0000000000
     11145      3688  TIP3      H1             25.4092464810       34.0790967438       46.4444118360  SOLV      3748            0.0000000000
     11146      3688  TIP3      H2             25.2611864810       34.9329667438       47.6857218360  SOLV      3748            0.0000000000
     11147      3689  TIP3      OH2            28.7050464810       20.6312567438       45.8756518360  SOLV      3749            0.0000000000
     11148      3689  TIP3      H1             28.0307264810       20.0018167438       46.1312318360  SOLV      3749            0.0000000000
     11149      3689  TIP3      H2             29.2689664810       20.1471467438       45.2724418360  SOLV      3749            0.0000000000
     11150      3690  TIP3      OH2            33.8477664810       18.7386567438       45.9883618360  SOLV      3750            0.0000000000
     11151      3690  TIP3      H1             34.4515264810       19.2861967438       45.4864618360  SOLV      3750            0.0000000000
     11152      3690  TIP3      H2             32.9779664810       19.0576967438       45.7477718360  SOLV      3750            0.0000000000
     11153      3691  TIP3      OH2            35.5748064810       19.8775267438       44.3214518360  SOLV      3751            0.0000000000
     11154      3691  TIP3      H1             36.1865564810       19.3630967438       43.7948118360  SOLV      3751            0.0000000000
     11155      3691  TIP3      H2             35.9571464810       20.7547367438       44.3448918360  SOLV      3751            0.0000000000
     11156      3692  TIP3      OH2            21.0317964810       19.2652867438       43.6976418360  SOLV      3752            0.0000000000
     11157      3692  TIP3      H1             20.2547764810       19.0307767438       43.1902318360  SOLV      3752            0.0000000000
     11158      3692  TIP3      H2             21.5621564810       18.4684967438       43.7064418360  SOLV      3752            0.0000000000
     11159      3693  TIP3      OH2            19.8681364810       19.0630967438       39.5012518360  SOLV      3753            0.0000000000
     11160      3693  TIP3      H1             20.3072064810       19.6741467438       38.9096018360  SOLV      3753            0.0000000000
     11161      3693  TIP3      H2             19.2343764810       19.6015067438       39.9752518360  SOLV      3753            0.0000000000
     11162      3694  TIP3      OH2            25.6110564810       19.1919967438       43.5109518360  SOLV      3754            0.0000000000
     11163      3694  TIP3      H1             26.4853964810       19.5804267438       43.4813818360  SOLV      3754            0.0000000000
     11164      3694  TIP3      H2             25.4751364810       18.9767767438       44.4336718360  SOLV      3754            0.0000000000
     11165      3695  TIP3      OH2            31.1678964810       19.2219767438       45.1601218360  SOLV      3755            0.0000000000
     11166      3695  TIP3      H1             31.2440564810       19.3171367438       44.2107218360  SOLV      3755            0.0000000000
     11167      3695  TIP3      H2             30.8928164810       18.3142667438       45.2890318360  SOLV      3755            0.0000000000
     11168      3696  TIP3      OH2            32.5211564810       19.2477567438       40.8526218360  SOLV      3756            0.0000000000
     11169      3696  TIP3      H1             31.8182664810       19.8626767438       40.6427618360  SOLV      3756            0.0000000000
     11170      3696  TIP3      H2             32.0762964810       18.4104267438       40.9837118360  SOLV      3756            0.0000000000
     11171      3697  TIP3      OH2            19.7690864810       35.0113167438       40.3987618360  SOLV      3757            0.0000000000
     11172      3697  TIP3      H1             19.0840764810       34.9732067438       39.7312718360  SOLV      3757            0.0000000000
     11173      3697  TIP3      H2             19.7728064810       35.9240767438       40.6869718360  SOLV      3757            0.0000000000
     11174      3698  TIP3      OH2            21.7290464810       20.9792467438       37.9436618360  SOLV      3758            0.0000000000
     11175      3698  TIP3      H1             22.2203864810       20.3494867438       37.4162118360  SOLV      3758            0.0000000000
     11176      3698  TIP3      H2             22.3526764810       21.2751867438       38.6067818360  SOLV      3758            0.0000000000
     11177      3699  TIP3      OH2            26.7550564810       21.2723967438       40.4007118360  SOLV      3759            0.0000000000
     11178      3699  TIP3      H1             26.9331864810       20.6257167438       41.0835718360  SOLV      3759            0.0000000000
     11179      3699  TIP3      H2             26.7016764810       22.1061667438       40.8678218360  SOLV      3759            0.0000000000
     11180      3700  TIP3      OH2            28.6334364810       36.2208067438       38.7963818360  SOLV      3760            0.0000000000
     11181      3700  TIP3      H1             29.4994564810       36.5875467438       38.6182018360  SOLV      3760            0.0000000000
     11182      3700  TIP3      H2             28.3867164810       35.7816067438       37.9824618360  SOLV      3760            0.0000000000
     11183      3701  TIP3      OH2            35.3423964810       35.7838367438       41.4754918360  SOLV      3761            0.0000000000
     11184      3701  TIP3      H1             35.1481064810       35.0360467438       40.9104518360  SOLV      3761            0.0000000000
     11185      3701  TIP3      H2             35.3034064810       36.5418467438       40.8922818360  SOLV      3761            0.0000000000
     11186      3702  TIP3      OH2            21.5872064810       35.9313967438       37.4239718360  SOLV      3762            0.0000000000
     11187      3702  TIP3      H1             21.3196664810       36.2176867438       38.2972818360  SOLV      3762            0.0000000000
     11188      3702  TIP3      H2             22.3584664810       35.3853167438       37.5762218360  SOLV      3762            0.0000000000
     11189      3703  TIP3      OH2            48.6100564810       28.4215167438       43.6563918360  SOLV      3763            0.0000000000
     11190      3703  TIP3      H1             48.6991664810       29.3653367438       43.5241018360  SOLV      3763            0.0000000000
     11191      3703  TIP3      H2             47.9718164810       28.1461567438       42.9983318360  SOLV      3763            0.0000000000
     11192      3704  TIP3      OH2            47.5431864810       27.6765867438       47.0752118360  SOLV      3764            0.0000000000
     11193      3704  TIP3      H1             47.5049364810       27.0302167438       47.7801718360  SOLV      3764            0.0000000000
     11194      3704  TIP3      H2             47.2208364810       27.2100267438       46.3040818360  SOLV      3764            0.0000000000
     11195      3705  TIP3      OH2            39.9116864810       27.2907967438       48.6682018360  SOLV      3765            0.0000000000
     11196      3705  TIP3      H1             39.9528964810       26.6651267438       49.3914418360  SOLV      3765            0.0000000000
     11197      3705  TIP3      H2             40.6144564810       27.9146567438       48.8502418360  SOLV      3765            0.0000000000
     11198      3706  TIP3      OH2            40.8349964810       31.7406867438       47.2031118360  SOLV      3766            0.0000000000
     11199      3706  TIP3      H1             40.4655164810       30.9387367438       46.8335418360  SOLV      3766            0.0000000000
     11200      3706  TIP3      H2             41.7761064810       31.5721767438       47.2494518360  SOLV      3766            0.0000000000
     11201      3707  TIP3      OH2            37.4450464810       25.4009467438       42.5959918360  SOLV      3767            0.0000000000
     11202      3707  TIP3      H1             36.9973864810       26.2468167438       42.5776418360  SOLV      3767            0.0000000000
     11203      3707  TIP3      H2             36.8841664810       24.8213667438       42.0805018360  SOLV      3767            0.0000000000
     11204      3708  TIP3      OH2            38.1556564810       27.5629067438       44.7217918360  SOLV      3768            0.0000000000
     11205      3708  TIP3      H1             38.3690064810       26.7930667438       45.2490918360  SOLV      3768            0.0000000000
     11206      3708  TIP3      H2             38.8934164810       27.6525767438       44.1185518360  SOLV      3768            0.0000000000
     11207      3709  TIP3      OH2            48.3607564810       35.7197967438       45.5887618360  SOLV      3769            0.0000000000
     11208      3709  TIP3      H1             48.9803964810       35.0432667438       45.3156818360  SOLV      3769            0.0000000000
     11209      3709  TIP3      H2             48.1524964810       35.5018767438       46.4972518360  SOLV      3769            0.0000000000
     11210      3710  TIP3      OH2            45.9326264810       30.1087267438       47.4813118360  SOLV      3770            0.0000000000
     11211      3710  TIP3      H1             46.2364164810       29.4228667438       46.8867218360  SOLV      3770            0.0000000000
     11212      3710  TIP3      H2             46.6540264810       30.2275967438       48.0991118360  SOLV      3770            0.0000000000
     11213      3711  TIP3      OH2            49.0733264810       24.5029667438       47.8087918360  SOLV      3771            0.0000000000
     11214      3711  TIP3      H1             49.2159164810       23.5566667438       47.8289518360  SOLV      3771            0.0000000000
     11215      3711  TIP3      H2             48.9672264810       24.7099467438       46.8802818360  SOLV      3771            0.0000000000
     11216      3712  TIP3      OH2            42.2281564810       22.6046067438       45.0812718360  SOLV      3772            0.0000000000
     11217      3712  TIP3      H1             42.2712664810       23.4644567438       44.6629018360  SOLV      3772            0.0000000000
     11218      3712  TIP3      H2             41.7705664810       22.0520767438       44.4475918360  SOLV      3772            0.0000000000
     11219      3713  TIP3      OH2            38.8483064810       25.0011867438       45.8434118360  SOLV      3773            0.0000000000
     11220      3713  TIP3      H1             39.5019664810       24.4513567438       46.2754218360  SOLV      3773            0.0000000000
     11221      3713  TIP3      H2             38.8722364810       24.7270867438       44.9266118360  SOLV      3773            0.0000000000
     11222      3714  TIP3      OH2            44.0047564810       26.5513167438       45.0585618360  SOLV      3774            0.0000000000
     11223      3714  TIP3      H1             44.6208564810       26.0248567438       45.5679618360  SOLV      3774            0.0000000000
     11224      3714  TIP3      H2             43.4186364810       25.9111867438       44.6549218360  SOLV      3774            0.0000000000
     11225      3715  TIP3      OH2            41.0383464810       21.5224467438       49.1553518360  SOLV      3775            0.0000000000
     11226      3715  TIP3      H1             40.8195164810       22.0525067438       48.3889518360  SOLV      3775            0.0000000000
     11227      3715  TIP3      H2             40.3704364810       21.7489967438       49.8024918360  SOLV      3775            0.0000000000
     11228      3716  TIP3      OH2            48.4073264810       31.0225567438       42.6992618360  SOLV      3776            0.0000000000
     11229      3716  TIP3      H1             48.1118364810       30.6997867438       41.8479518360  SOLV      3776            0.0000000000
     11230      3716  TIP3      H2             48.0831064810       31.9222267438       42.7405218360  SOLV      3776            0.0000000000
     11231      3717  TIP3      OH2            43.6074864810       29.1980167438       49.4427218360  SOLV      3777            0.0000000000
     11232      3717  TIP3      H1             42.8673964810       29.7961667438       49.5462418360  SOLV      3777            0.0000000000
     11233      3717  TIP3      H2             44.3214364810       29.7519767438       49.1270818360  SOLV      3777            0.0000000000
     11234      3718  TIP3      OH2            40.6320764810       23.4146267438       47.1075718360  SOLV      3778            0.0000000000
     11235      3718  TIP3      H1             41.2457064810       24.0473867438       47.4808118360  SOLV      3778            0.0000000000
     11236      3718  TIP3      H2             41.1441464810       22.9421267438       46.4512618360  SOLV      3778            0.0000000000
     11237      3719  TIP3      OH2            38.1360064810       30.8331067438       41.0118018360  SOLV      3779            0.0000000000
     11238      3719  TIP3      H1             37.8640964810       31.0622067438       40.1230918360  SOLV      3779            0.0000000000
     11239      3719  TIP3      H2             38.1815764810       31.6709867438       41.4723318360  SOLV      3779            0.0000000000
     11240      3720  TIP3      OH2            45.0648164810       18.8279567438       46.6078418360  SOLV      3780            0.0000000000
     11241      3720  TIP3      H1             44.9472364810       17.8795567438       46.5536718360  SOLV      3780            0.0000000000
     11242      3720  TIP3      H2             44.2098264810       19.1605667438       46.8809518360  SOLV      3780            0.0000000000
     11243      3721  TIP3      OH2            47.3313064810       27.6655167438       41.1084218360  SOLV      3781            0.0000000000
     11244      3721  TIP3      H1             46.6198564810       28.2004867438       40.7564718360  SOLV      3781            0.0000000000
     11245      3721  TIP3      H2             48.0222664810       27.7207267438       40.4483118360  SOLV      3781            0.0000000000
     11246      3722  TIP3      OH2            47.3852264810       26.1229467438       38.1469218360  SOLV      3782            0.0000000000
     11247      3722  TIP3      H1             48.0862164810       26.1456367438       38.7983218360  SOLV      3782            0.0000000000
     11248      3722  TIP3      H2             47.6875164810       25.4949167438       37.4908518360  SOLV      3782            0.0000000000
     11249      3723  TIP3      OH2            42.3824464810       28.5054667438       43.9425118360  SOLV      3783            0.0000000000
     11250      3723  TIP3      H1             42.0519664810       28.1348067438       43.1242118360  SOLV      3783            0.0000000000
     11251      3723  TIP3      H2             42.9708564810       27.8348667438       44.2893418360  SOLV      3783            0.0000000000
     11252      3724  TIP3      OH2            43.7491964810       31.9335267438       46.6237318360  SOLV      3784            0.0000000000
     11253      3724  TIP3      H1             43.6543264810       31.3548367438       45.8671918360  SOLV      3784            0.0000000000
     11254      3724  TIP3      H2             44.4785564810       31.5620967438       47.1200118360  SOLV      3784            0.0000000000
     11255      3725  TIP3      OH2            42.7489964810       27.2740267438       47.5760118360  SOLV      3785            0.0000000000
     11256      3725  TIP3      H1             43.3142464810       27.3954467438       46.8131318360  SOLV      3785            0.0000000000
     11257      3725  TIP3      H2             43.0678864810       27.9115267438       48.2148618360  SOLV      3785            0.0000000000
     11258      3726  TIP3      OH2            49.0582164810       32.7772167438       48.3100618360  SOLV      3786            0.0000000000
     11259      3726  TIP3      H1             48.8178764810       33.4395267438       48.9579818360  SOLV      3786            0.0000000000
     11260      3726  TIP3      H2             48.8600364810       31.9427367438       48.7350218360  SOLV      3786            0.0000000000
     11261      3727  TIP3      OH2            49.6080264810       27.0371367438       39.7451318360  SOLV      3787            0.0000000000
     11262      3727  TIP3      H1             50.1875764810       27.1871667438       40.4920218360  SOLV      3787            0.0000000000
     11263      3727  TIP3      H2             50.0220264810       27.5078767438       39.0217718360  SOLV      3787            0.0000000000
     11264      3728  TIP3      OH2            47.3345164810       33.7739867438       43.1804418360  SOLV      3788            0.0000000000
     11265      3728  TIP3      H1             47.8082764810       34.0696167438       43.9578618360  SOLV      3788            0.0000000000
     11266      3728  TIP3      H2             46.7714464810       34.5121467438       42.9474018360  SOLV      3788            0.0000000000
     11267      3729  TIP3      OH2            41.3727164810       27.5748967438       41.5317918360  SOLV      3789            0.0000000000
     11268      3729  TIP3      H1             41.0808464810       28.3430667438       41.0409218360  SOLV      3789            0.0000000000
     11269      3729  TIP3      H2             40.6982364810       26.9155167438       41.3689318360  SOLV      3789            0.0000000000
     11270      3730  TIP3      OH2            37.2159964810       32.7181967438       47.2307918360  SOLV      3790            0.0000000000
     11271      3730  TIP3      H1             38.1620564810       32.5738967438       47.2117418360  SOLV      3790            0.0000000000
     11272      3730  TIP3      H2             37.1036264810       33.5024767438       47.7679118360  SOLV      3790            0.0000000000
     11273      3731  TIP3      OH2            46.8068264810       36.7304567438       41.5953618360  SOLV      3791            0.0000000000
     11274      3731  TIP3      H1             46.7314264810       36.6091767438       40.6488818360  SOLV      3791            0.0000000000
     11275      3731  TIP3      H2             46.8396964810       37.6797267438       41.7138218360  SOLV      3791            0.0000000000
     11276      3732  TIP3      OH2            40.4602064810       35.5191567438       43.3762618360  SOLV      3792            0.0000000000
     11277      3732  TIP3      H1             40.6122464810       35.1711967438       44.2549118360  SOLV      3792            0.0000000000
     11278      3732  TIP3      H2             39.6092464810       35.1628867438       43.1209818360  SOLV      3792            0.0000000000
     11279      3733  TIP3      OH2            49.5772364810       35.8101867438       41.3468218360  SOLV      3793            0.0000000000
     11280      3733  TIP3      H1             48.6422164810       35.9103767438       41.5255218360  SOLV      3793            0.0000000000
     11281      3733  TIP3      H2             49.8574264810       35.1007867438       41.9251418360  SOLV      3793            0.0000000000
     11282      3734  TIP3      OH2            42.3335764810       19.7314067438       47.3854718360  SOLV      3794            0.0000000000
     11283      3734  TIP3      H1             41.4719464810       19.6442267438       46.9777618360  SOLV      3794            0.0000000000
     11284      3734  TIP3      H2             42.3111464810       20.5874167438       47.8132318360  SOLV      3794            0.0000000000
     11285      3735  TIP3      OH2            46.6580864810       21.9457867438       38.0452518360  SOLV      3795            0.0000000000
     11286      3735  TIP3      H1             46.4045664810       21.9649467438       38.9680618360  SOLV      3795            0.0000000000
     11287      3735  TIP3      H2             46.4012964810       21.0743267438       37.7438718360  SOLV      3795            0.0000000000
     11288      3736  TIP3      OH2            42.4245864810       24.6968567438       48.4804918360  SOLV      3796            0.0000000000
     11289      3736  TIP3      H1             41.7827964810       24.6565867438       49.1895018360  SOLV      3796            0.0000000000
     11290      3736  TIP3      H2             42.4617864810       25.6233267438       48.2427918360  SOLV      3796            0.0000000000
     11291      3737  TIP3      OH2            42.4214964810       24.9178667438       43.3924918360  SOLV      3797            0.0000000000
     11292      3737  TIP3      H1             41.5287864810       24.5774767438       43.3338718360  SOLV      3797            0.0000000000
     11293      3737  TIP3      H2             42.8721564810       24.5409567438       42.6368118360  SOLV      3797            0.0000000000
     11294      3738  TIP3      OH2            47.9570464810       25.3338967438       42.2095718360  SOLV      3798            0.0000000000
     11295      3738  TIP3      H1             47.5480764810       26.1487567438       41.9180518360  SOLV      3798            0.0000000000
     11296      3738  TIP3      H2             48.6776664810       25.1939067438       41.5952818360  SOLV      3798            0.0000000000
     11297      3739  TIP3      OH2            48.9618164810       24.7799367438       45.0235418360  SOLV      3799            0.0000000000
     11298      3739  TIP3      H1             48.7662664810       25.3856167438       44.3086018360  SOLV      3799            0.0000000000
     11299      3739  TIP3      H2             49.1430764810       23.9464567438       44.5891718360  SOLV      3799            0.0000000000
     11300      3740  TIP3      OH2            43.5403764810       22.3914367438       37.1462918360  SOLV      3800            0.0000000000
     11301      3740  TIP3      H1             43.1094464810       21.9464467438       37.8760318360  SOLV      3800            0.0000000000
     11302      3740  TIP3      H2             42.8222464810       22.7630667438       36.6340418360  SOLV      3800            0.0000000000
     11303      3741  TIP3      OH2            36.7827164810       22.1333867438       44.1981618360  SOLV      3801            0.0000000000
     11304      3741  TIP3      H1             37.4134864810       22.1045967438       44.9175518360  SOLV      3801            0.0000000000
     11305      3741  TIP3      H2             37.2321464810       21.7082567438       43.4677518360  SOLV      3801            0.0000000000
     11306      3742  TIP3      OH2            38.0569264810       22.8795867438       39.6222018360  SOLV      3802            0.0000000000
     11307      3742  TIP3      H1             38.5310964810       23.4705767438       39.0372918360  SOLV      3802            0.0000000000
     11308      3742  TIP3      H2             37.3395664810       23.4098767438       39.9692118360  SOLV      3802            0.0000000000
     11309      3743  TIP3      OH2            48.2257364810       26.4180667438       49.6947818360  SOLV      3803            0.0000000000
     11310      3743  TIP3      H1             48.5492164810       25.7870367438       49.0518318360  SOLV      3803            0.0000000000
     11311      3743  TIP3      H2             47.7856664810       25.8832867438       50.3555218360  SOLV      3803            0.0000000000
     11312      3744  TIP3      OH2            45.0030264810       22.3456167438       44.4789018360  SOLV      3804            0.0000000000
     11313      3744  TIP3      H1             44.0921364810       22.4022967438       44.7675018360  SOLV      3804            0.0000000000
     11314      3744  TIP3      H2             45.5083164810       22.2851667438       45.2896218360  SOLV      3804            0.0000000000
     11315      3745  TIP3      OH2            39.8313664810       23.9742467438       43.3056618360  SOLV      3805            0.0000000000
     11316      3745  TIP3      H1             38.9421664810       24.0737967438       42.9656218360  SOLV      3805            0.0000000000
     11317      3745  TIP3      H2             40.1278564810       23.1325467438       42.9594518360  SOLV      3805            0.0000000000
     11318      3746  TIP3      OH2            43.4845464810       23.9745067438       40.9621218360  SOLV      3806            0.0000000000
     11319      3746  TIP3      H1             44.4160964810       24.1035067438       41.1404318360  SOLV      3806            0.0000000000
     11320      3746  TIP3      H2             43.2695764810       24.6439367438       40.3125918360  SOLV      3806            0.0000000000
     11321      3747  TIP3      OH2            49.4082164810       21.5802467438       47.7430818360  SOLV      3807            0.0000000000
     11322      3747  TIP3      H1             48.7313764810       21.7115567438       48.4070518360  SOLV      3807            0.0000000000
     11323      3747  TIP3      H2             48.9227064810       21.4251967438       46.9328518360  SOLV      3807            0.0000000000
     11324      3748  TIP3      OH2            42.1585664810       25.1687267438       38.5287318360  SOLV      3808            0.0000000000
     11325      3748  TIP3      H1             41.6160764810       24.7891067438       37.8374918360  SOLV      3808            0.0000000000
     11326      3748  TIP3      H2             42.9920564810       25.3631967438       38.1001418360  SOLV      3808            0.0000000000
     11327      3749  TIP3      OH2            46.3229964810       25.1329167438       46.3658618360  SOLV      3809            0.0000000000
     11328      3749  TIP3      H1             46.8873364810       24.5865767438       45.8188218360  SOLV      3809            0.0000000000
     11329      3749  TIP3      H2             46.1753364810       24.6111067438       47.1546218360  SOLV      3809            0.0000000000
     11330      3750  TIP3      OH2            41.3249664810       21.2695267438       42.7843418360  SOLV      3810            0.0000000000
     11331      3750  TIP3      H1             41.0079164810       20.3670567438       42.7488818360  SOLV      3810            0.0000000000
     11332      3750  TIP3      H2             42.1063764810       21.2712667438       42.2315018360  SOLV      3810            0.0000000000
     11333      3751  TIP3      OH2            44.9495864810       23.5215267438       48.7799018360  SOLV      3811            0.0000000000
     11334      3751  TIP3      H1             44.1141164810       23.9754767438       48.8901418360  SOLV      3811            0.0000000000
     11335      3751  TIP3      H2             45.4736464810       23.7973767438       49.5318918360  SOLV      3811            0.0000000000
     11336      3752  TIP3      OH2            45.4938464810       29.7342967438       40.4645418360  SOLV      3812            0.0000000000
     11337      3752  TIP3      H1             44.7489464810       29.2268267438       40.1423318360  SOLV      3812            0.0000000000
     11338      3752  TIP3      H2             45.3595664810       29.7830967438       41.4110218360  SOLV      3812            0.0000000000
     11339      3753  TIP3      OH2            49.3915264810       22.5482867438       38.6638018360  SOLV      3813            0.0000000000
     11340      3753  TIP3      H1             48.4529464810       22.6598467438       38.5126818360  SOLV      3813            0.0000000000
     11341      3753  TIP3      H2             49.6887364810       23.4049767438       38.9703718360  SOLV      3813            0.0000000000
     11342      3754  TIP3      OH2            40.6186764810       29.0292967438       46.2343318360  SOLV      3814            0.0000000000
     11343      3754  TIP3      H1             41.3633964810       29.0268667438       45.6329818360  SOLV      3814            0.0000000000
     11344      3754  TIP3      H2             40.6963364810       28.2056767438       46.7158418360  SOLV      3814            0.0000000000
     11345      3755  TIP3      OH2            47.6192564810       31.1927267438       39.4900018360  SOLV      3815            0.0000000000
     11346      3755  TIP3      H1             47.3240964810       32.0195167438       39.8714818360  SOLV      3815            0.0000000000
     11347      3755  TIP3      H2             46.9162564810       30.5734167438       39.6861418360  SOLV      3815            0.0000000000
     11348      3756  TIP3      OH2            42.9936164810       32.5471167438       43.6384818360  SOLV      3816            0.0000000000
     11349      3756  TIP3      H1             43.5208364810       33.3205567438       43.4383618360  SOLV      3816            0.0000000000
     11350      3756  TIP3      H2             42.1134664810       32.7720367438       43.3368818360  SOLV      3816            0.0000000000
     11351      3757  TIP3      OH2            38.7483864810       27.4095267438       38.2257218360  SOLV      3817            0.0000000000
     11352      3757  TIP3      H1             39.3643764810       28.0362467438       38.6052018360  SOLV      3817            0.0000000000
     11353      3757  TIP3      H2             37.8866464810       27.7255067438       38.4973718360  SOLV      3817            0.0000000000
     11354      3758  TIP3      OH2            44.4208464810       30.2101067438       43.2149118360  SOLV      3818            0.0000000000
     11355      3758  TIP3      H1             44.1798464810       31.1355467438       43.2564418360  SOLV      3818            0.0000000000
     11356      3758  TIP3      H2             43.6802064810       29.7512367438       43.6113018360  SOLV      3818            0.0000000000
     11357      3759  TIP3      OH2            44.9355064810       34.3594667438       49.5300218360  SOLV      3819            0.0000000000
     11358      3759  TIP3      H1             45.2979764810       35.2140267438       49.2964618360  SOLV      3819            0.0000000000
     11359      3759  TIP3      H2             45.4670264810       34.0676267438       50.2706518360  SOLV      3819            0.0000000000
     11360      3760  TIP3      OH2            43.1039264810       35.2318667438       42.7601318360  SOLV      3820            0.0000000000
     11361      3760  TIP3      H1             42.1539764810       35.3376067438       42.8114618360  SOLV      3820            0.0000000000
     11362      3760  TIP3      H2             43.4557364810       36.0526067438       43.1048818360  SOLV      3820            0.0000000000
     11363      3761  TIP3      OH2            48.4795864810       30.4585367438       49.2305818360  SOLV      3821            0.0000000000
     11364      3761  TIP3      H1             48.0537164810       30.2307067438       50.0569818360  SOLV      3821            0.0000000000
     11365      3761  TIP3      H2             49.0601664810       29.7197167438       49.0481118360  SOLV      3821            0.0000000000
     11366      3762  TIP3      OH2            38.9117964810       34.0476967438       49.5422618360  SOLV      3822            0.0000000000
     11367      3762  TIP3      H1             39.1288264810       33.1159367438       49.5112318360  SOLV      3822            0.0000000000
     11368      3762  TIP3      H2             39.1581464810       34.3221967438       50.4255418360  SOLV      3822            0.0000000000
     11369      3763  TIP3      OH2            44.7732564810       32.4991967438       36.7514818360  SOLV      3823            0.0000000000
     11370      3763  TIP3      H1             45.0122364810       31.7510067438       36.2043718360  SOLV      3823            0.0000000000
     11371      3763  TIP3      H2             44.5043864810       32.1113667438       37.5842618360  SOLV      3823            0.0000000000
     11372      3764  TIP3      OH2            43.7103164810       32.0695767438       39.2077418360  SOLV      3824            0.0000000000
     11373      3764  TIP3      H1             43.8571164810       31.5495567438       39.9978318360  SOLV      3824            0.0000000000
     11374      3764  TIP3      H2             43.7074864810       32.9763367438       39.5143318360  SOLV      3824            0.0000000000
     11375      3765  TIP3      OH2            40.1634264810       29.3219067438       39.7182818360  SOLV      3825            0.0000000000
     11376      3765  TIP3      H1             39.4773564810       29.6741567438       40.2852518360  SOLV      3825            0.0000000000
     11377      3765  TIP3      H2             40.6862164810       30.0848667438       39.4717118360  SOLV      3825            0.0000000000
     11378      3766  TIP3      OH2            48.7794264810       21.6364567438       41.0944118360  SOLV      3826            0.0000000000
     11379      3766  TIP3      H1             48.9992564810       22.1079967438       40.2909518360  SOLV      3826            0.0000000000
     11380      3766  TIP3      H2             49.3378264810       22.0307167438       41.7644718360  SOLV      3826            0.0000000000
     11381      3767  TIP3      OH2            46.4480364810       33.7669367438       39.9571618360  SOLV      3827            0.0000000000
     11382      3767  TIP3      H1             45.6316464810       34.2639067438       40.0095918360  SOLV      3827            0.0000000000
     11383      3767  TIP3      H2             46.9776664810       34.2422867438       39.3170418360  SOLV      3827            0.0000000000
     11384      3768  TIP3      OH2            45.9794164810       23.3643367438       41.9292518360  SOLV      3828            0.0000000000
     11385      3768  TIP3      H1             46.7916764810       23.8686567438       41.9754218360  SOLV      3828            0.0000000000
     11386      3768  TIP3      H2             45.7347164810       23.2193067438       42.8432118360  SOLV      3828            0.0000000000
     11387      3769  TIP3      OH2            46.8630864810       20.4456367438       42.8673618360  SOLV      3829            0.0000000000
     11388      3769  TIP3      H1             46.5164364810       21.0626967438       43.5117918360  SOLV      3829            0.0000000000
     11389      3769  TIP3      H2             47.5217764810       20.9462067438       42.3859118360  SOLV      3829            0.0000000000
     11390      3770  TIP3      OH2            43.7863464810       34.8106567438       39.9388518360  SOLV      3830            0.0000000000
     11391      3770  TIP3      H1             43.9472164810       35.6104067438       39.4381118360  SOLV      3830            0.0000000000
     11392      3770  TIP3      H2             43.5891264810       35.1172567438       40.8239118360  SOLV      3830            0.0000000000
     11393      3771  TIP3      OH2            42.5207864810       21.5085767438       39.5546118360  SOLV      3831            0.0000000000
     11394      3771  TIP3      H1             42.4372664810       22.3968867438       39.9012518360  SOLV      3831            0.0000000000
     11395      3771  TIP3      H2             43.4108164810       21.2432467438       39.7862918360  SOLV      3831            0.0000000000
     11396      3772  TIP3      OH2            40.7793164810       31.9357967438       38.6150618360  SOLV      3832            0.0000000000
     11397      3772  TIP3      H1             41.3714664810       32.6352767438       38.8913018360  SOLV      3832            0.0000000000
     11398      3772  TIP3      H2             41.2386164810       31.5027467438       37.8955218360  SOLV      3832            0.0000000000
     11399      3773  TIP3      OH2            39.0952364810       24.6000967438       37.7310018360  SOLV      3833            0.0000000000
     11400      3773  TIP3      H1             39.0504964810       25.5394067438       37.9097018360  SOLV      3833            0.0000000000
     11401      3773  TIP3      H2             38.2075564810       24.3645867438       37.4612118360  SOLV      3833            0.0000000000
     11402      3774  TIP3      OH2            39.9034364810       19.3817567438       46.4041018360  SOLV      3834            0.0000000000
     11403      3774  TIP3      H1             39.6744164810       19.4410067438       45.4766018360  SOLV      3834            0.0000000000
     11404      3774  TIP3      H2             39.4607764810       18.5903067438       46.7105118360  SOLV      3834            0.0000000000
     11405      3775  TIP3      OH2            38.8337664810       33.3224667438       42.5646818360  SOLV      3835            0.0000000000
     11406      3775  TIP3      H1             38.0016264810       33.7947367438       42.5918218360  SOLV      3835            0.0000000000
     11407      3775  TIP3      H2             39.3795964810       33.8322267438       41.9659918360  SOLV      3835            0.0000000000
     11408      3776  TIP3      OH2            46.8114364810       34.3623367438       36.8900818360  SOLV      3836            0.0000000000
     11409      3776  TIP3      H1             46.1675364810       33.7311967438       37.2114518360  SOLV      3836            0.0000000000
     11410      3776  TIP3      H2             47.5732664810       33.8311367438       36.6584318360  SOLV      3836            0.0000000000
     11411      3777  TIP3      OH2            42.3704564810       30.0888167438       36.9813718360  SOLV      3837            0.0000000000
     11412      3777  TIP3      H1             42.4348664810       29.2947767438       37.5120118360  SOLV      3837            0.0000000000
     11413      3777  TIP3      H2             43.0233764810       29.9700967438       36.2915718360  SOLV      3837            0.0000000000
     11414      3778  TIP3      OH2            47.7227964810       31.1359867438       36.7171718360  SOLV      3838            0.0000000000
     11415      3778  TIP3      H1             47.4542064810       31.3161967438       37.6180618360  SOLV      3838            0.0000000000
     11416      3778  TIP3      H2             47.5163564810       30.2106067438       36.5857518360  SOLV      3838            0.0000000000
     11417      3779  TIP3      OH2            43.5198364810       28.0614367438       39.2871718360  SOLV      3839            0.0000000000
     11418      3779  TIP3      H1             43.0600364810       27.5772667438       39.9730218360  SOLV      3839            0.0000000000
     11419      3779  TIP3      H2             43.7747064810       27.3929767438       38.6512218360  SOLV      3839            0.0000000000
     11420      3780  TIP3      OH2            44.5908764810       26.3046167438       37.5494918360  SOLV      3840            0.0000000000
     11421      3780  TIP3      H1             44.4103764810       26.1497367438       36.6223218360  SOLV      3840            0.0000000000
     11422      3780  TIP3      H2             45.5409264810       26.4124867438       37.5942818360  SOLV      3840            0.0000000000
     11423      3781  TIP3      OH2            44.4880464810       36.9949867438       38.5508518360  SOLV      3841            0.0000000000
     11424      3781  TIP3      H1             45.4211164810       37.1528567438       38.6946918360  SOLV      3841            0.0000000000
     11425      3781  TIP3      H2             44.2239264810       37.6702867438       37.9260018360  SOLV      3841            0.0000000000
     11426      3782  TIP3      OH2            38.0565364810       31.6313667438       38.0336618360  SOLV      3842            0.0000000000
     11427      3782  TIP3      H1             38.9704564810       31.7102567438       38.3070518360  SOLV      3842            0.0000000000
     11428      3782  TIP3      H2             38.0638464810       30.9443267438       37.3672218360  SOLV      3842            0.0000000000
     11429      3783  TIP3      OH2            36.7055964810       37.0242167438       43.1110518360  SOLV      3843            0.0000000000
     11430      3783  TIP3      H1             36.0583064810       36.5623867438       42.5781718360  SOLV      3843            0.0000000000
     11431      3783  TIP3      H2             37.0600564810       36.3525467438       43.6936718360  SOLV      3843            0.0000000000
     11432      3784  TIP3      OH2            37.5755164810       35.1049167438       44.9156718360  SOLV      3844            0.0000000000
     11433      3784  TIP3      H1             37.2411964810       34.2246467438       45.0876918360  SOLV      3844            0.0000000000
     11434      3784  TIP3      H2             37.7977564810       35.4504167438       45.7802318360  SOLV      3844            0.0000000000
     11435      3785  TIP3      OH2            37.6554664810       28.1804567438       47.3671618360  SOLV      3845            0.0000000000
     11436      3785  TIP3      H1             37.8397564810       28.0986267438       46.4314518360  SOLV      3845            0.0000000000
     11437      3785  TIP3      H2             38.5047564810       28.0561567438       47.7908018360  SOLV      3845            0.0000000000
     11438      3786  TIP3      OH2            38.4741964810       21.7631167438       46.3993318360  SOLV      3846            0.0000000000
     11439      3786  TIP3      H1             38.9193564810       20.9713667438       46.7013018360  SOLV      3846            0.0000000000
     11440      3786  TIP3      H2             38.9404964810       22.4796367438       46.8298918360  SOLV      3846            0.0000000000
     11441      3787  TIP3      OH2            36.7782264810       24.7624167438       47.4683518360  SOLV      3847            0.0000000000
     11442      3787  TIP3      H1             37.2702064810       24.5414667438       46.6775518360  SOLV      3847            0.0000000000
     11443      3787  TIP3      H2             37.1403164810       25.6027567438       47.7493018360  SOLV      3847            0.0000000000
     11444      3788  TIP3      OH2            37.0918764810       21.0203267438       41.5225918360  SOLV      3848            0.0000000000
     11445      3788  TIP3      H1             36.1667164810       21.2289867438       41.3931418360  SOLV      3848            0.0000000000
     11446      3788  TIP3      H2             37.5458664810       21.5044067438       40.8328218360  SOLV      3848            0.0000000000
     11447      3789  TIP3      OH2            37.0554164810       19.7582267438       49.8668418360  SOLV      3849            0.0000000000
     11448      3789  TIP3      H1             36.3904664810       19.5122567438       50.5099318360  SOLV      3849            0.0000000000
     11449      3789  TIP3      H2             36.6125464810       20.3802667438       49.2896418360  SOLV      3849            0.0000000000
     11450      3790  TIP3      OH2            42.0705664810       36.7645367438       49.3470718360  SOLV      3850            0.0000000000
     11451      3790  TIP3      H1             41.2057864810       36.8363867438       49.7510818360  SOLV      3850            0.0000000000
     11452      3790  TIP3      H2             42.0154664810       37.3112667438       48.5633218360  SOLV      3850            0.0000000000
     11453      3791  TIP3      OH2            46.7811264810       36.6524267438       48.5226718360  SOLV      3851            0.0000000000
     11454      3791  TIP3      H1             46.3245264810       37.1813967438       47.8685118360  SOLV      3851            0.0000000000
     11455      3791  TIP3      H2             46.9439264810       37.2555667438       49.2479018360  SOLV      3851            0.0000000000
     11456      3792  TIP3      OH2            49.1087564810       35.5303867438       49.4677018360  SOLV      3852            0.0000000000
     11457      3792  TIP3      H1             48.2041264810       35.6954067438       49.2019118360  SOLV      3852            0.0000000000
     11458      3792  TIP3      H2             49.5376164810       36.3836067438       49.4020418360  SOLV      3852            0.0000000000
     11459      3793  TIP3      OH2            39.0181164810       35.7873967438       47.2275318360  SOLV      3853            0.0000000000
     11460      3793  TIP3      H1             38.9997164810       35.3619067438       48.0847618360  SOLV      3853            0.0000000000
     11461      3793  TIP3      H2             39.8229064810       35.4688967438       46.8187518360  SOLV      3853            0.0000000000
     11462      3794  TIP3      OH2            41.1594264810       34.4972667438       45.8825218360  SOLV      3854            0.0000000000
     11463      3794  TIP3      H1             40.9404964810       33.5810067438       46.0521218360  SOLV      3854            0.0000000000
     11464      3794  TIP3      H2             41.9836464810       34.6373067438       46.3486618360  SOLV      3854            0.0000000000
     11465      3795  TIP3      OH2            43.6966764810       34.9671967438       46.7313218360  SOLV      3855            0.0000000000
     11466      3795  TIP3      H1             43.9092464810       34.0790967438       46.4444118360  SOLV      3855            0.0000000000
     11467      3795  TIP3      H2             43.7611864810       34.9329667438       47.6857218360  SOLV      3855            0.0000000000
     11468      3796  TIP3      OH2            47.2050464810       20.6312567438       45.8756518360  SOLV      3856            0.0000000000
     11469      3796  TIP3      H1             46.5307264810       20.0018167438       46.1312318360  SOLV      3856            0.0000000000
     11470      3796  TIP3      H2             47.7689664810       20.1471467438       45.2724418360  SOLV      3856            0.0000000000
     11471      3797  TIP3      OH2            39.5317964810       19.2652867438       43.6976418360  SOLV      3857            0.0000000000
     11472      3797  TIP3      H1             38.7547764810       19.0307767438       43.1902318360  SOLV      3857            0.0000000000
     11473      3797  TIP3      H2             40.0621564810       18.4684967438       43.7064418360  SOLV      3857            0.0000000000
     11474      3798  TIP3      OH2            38.3681364810       19.0630967438       39.5012518360  SOLV      3858            0.0000000000
     11475      3798  TIP3      H1             38.8072064810       19.6741467438       38.9096018360  SOLV      3858            0.0000000000
     11476      3798  TIP3      H2             37.7343764810       19.6015067438       39.9752518360  SOLV      3858            0.0000000000
     11477      3799  TIP3      OH2            44.1110564810       19.1919967438       43.5109518360  SOLV      3859            0.0000000000
     11478      3799  TIP3      H1             44.9853964810       19.5804267438       43.4813818360  SOLV      3859            0.0000000000
     11479      3799  TIP3      H2             43.9751364810       18.9767767438       44.4336718360  SOLV      3859            0.0000000000
     11480      3800  TIP3      OH2            49.6678964810       19.2219767438       45.1601218360  SOLV      3860            0.0000000000
     11481      3800  TIP3      H1             49.7440564810       19.3171367438       44.2107218360  SOLV      3860            0.0000000000
     11482      3800  TIP3      H2             49.3928164810       18.3142667438       45.2890318360  SOLV      3860            0.0000000000
     11483      3801  TIP3      OH2            38.2690864810       35.0113167438       40.3987618360  SOLV      3861            0.0000000000
     11484      3801  TIP3      H1             37.5840764810       34.9732067438       39.7312718360  SOLV      3861            0.0000000000
     11485      3801  TIP3      H2             38.2728064810       35.9240767438       40.6869718360  SOLV      3861            0.0000000000
     11486      3802  TIP3      OH2            40.2290464810       20.9792467438       37.9436618360  SOLV      3862            0.0000000000
     11487      3802  TIP3      H1             40.7203864810       20.3494867438       37.4162118360  SOLV      3862            0.0000000000
     11488      3802  TIP3      H2             40.8526764810       21.2751867438       38.6067818360  SOLV      3862            0.0000000000
     11489      3803  TIP3      OH2            45.2550564810       21.2723967438       40.4007118360  SOLV      3863            0.0000000000
     11490      3803  TIP3      H1             45.4331864810       20.6257167438       41.0835718360  SOLV      3863            0.0000000000
     11491      3803  TIP3      H2             45.2016764810       22.1061667438       40.8678218360  SOLV      3863            0.0000000000
     11492      3804  TIP3      OH2            47.1334364810       36.2208067438       38.7963818360  SOLV      3864            0.0000000000
     11493      3804  TIP3      H1             47.9994564810       36.5875467438       38.6182018360  SOLV      3864            0.0000000000
     11494      3804  TIP3      H2             46.8867164810       35.7816067438       37.9824618360  SOLV      3864            0.0000000000
     11495      3805  TIP3      OH2            40.0872064810       35.9313967438       37.4239718360  SOLV      3865            0.0000000000
     11496      3805  TIP3      H1             39.8196664810       36.2176867438       38.2972818360  SOLV      3865            0.0000000000
     11497      3805  TIP3      H2             40.8584664810       35.3853167438       37.5762218360  SOLV      3865            0.0000000000
     11498      3806  TIP3      OH2            14.2492064810       49.1156267438       45.3767218360  SOLV      3869            0.0000000000
     11499      3806  TIP3      H1             13.8084764810       48.3952267438       45.8272818360  SOLV      3869            0.0000000000
     11500      3806  TIP3      H2             14.2361764810       49.8363467438       46.0064918360  SOLV      3869            0.0000000000
     11501      3807  TIP3      OH2            17.5956064810       40.2102567438       48.3419318360  SOLV      3873            0.0000000000
     11502      3807  TIP3      H1             17.6448264810       40.8203767438       49.0778418360  SOLV      3873            0.0000000000
     11503      3807  TIP3      H2             18.0211164810       40.6713467438       47.6190418360  SOLV      3873            0.0000000000
     11504      3808  TIP3      OH2            12.0733264810       43.0029667438       47.8087918360  SOLV      3874            0.0000000000
     11505      3808  TIP3      H1             12.2159164810       42.0566667438       47.8289518360  SOLV      3874            0.0000000000
     11506      3808  TIP3      H2             11.9672264810       43.2099467438       46.8802818360  SOLV      3874            0.0000000000
     11507      3809  TIP3      OH2             5.2281564810       41.1046067438       45.0812718360  SOLV      3875            0.0000000000
     11508      3809  TIP3      H1              5.2712664810       41.9644567438       44.6629018360  SOLV      3875            0.0000000000
     11509      3809  TIP3      H2              4.7705664810       40.5520767438       44.4475918360  SOLV      3875            0.0000000000
     11510      3810  TIP3      OH2            12.9504264810       41.2351667438       43.4821018360  SOLV      3876            0.0000000000
     11511      3810  TIP3      H1             13.5968564810       40.9064867438       44.1068618360  SOLV      3876            0.0000000000
     11512      3810  TIP3      H2             13.4603664810       41.7530667438       42.8592418360  SOLV      3876            0.0000000000
     11513      3811  TIP3      OH2             4.0383464810       40.0224467438       49.1553518360  SOLV      3879            0.0000000000
     11514      3811  TIP3      H1              3.8195164810       40.5525067438       48.3889518360  SOLV      3879            0.0000000000
     11515      3811  TIP3      H2              3.3704364810       40.2489967438       49.8024918360  SOLV      3879            0.0000000000
     11516      3812  TIP3      OH2            11.4073264810       49.5225567438       42.6992618360  SOLV      3880            0.0000000000
     11517      3812  TIP3      H1             11.1118364810       49.1997867438       41.8479518360  SOLV      3880            0.0000000000
     11518      3812  TIP3      H2             11.0831064810       50.4222267438       42.7405218360  SOLV      3880            0.0000000000
     11519      3813  TIP3      OH2            14.7142664810       40.5260967438       45.4626918360  SOLV      3882            0.0000000000
     11520      3813  TIP3      H1             14.4990664810       39.7604367438       45.9952918360  SOLV      3882            0.0000000000
     11521      3813  TIP3      H2             15.3700064810       40.9985567438       45.9755418360  SOLV      3882            0.0000000000
     11522      3814  TIP3      OH2             3.6320764810       41.9146267438       47.1075718360  SOLV      3883            0.0000000000
     11523      3814  TIP3      H1              4.2457064810       42.5473867438       47.4808118360  SOLV      3883            0.0000000000
     11524      3814  TIP3      H2              4.1441464810       41.4421267438       46.4512618360  SOLV      3883            0.0000000000
     11525      3815  TIP3      OH2            15.0616764810       39.2412267438       49.1420418360  SOLV      3885            0.0000000000
     11526      3815  TIP3      H1             14.3255964810       39.8519367438       49.1041718360  SOLV      3885            0.0000000000
     11527      3815  TIP3      H2             15.7450764810       39.6561267438       48.6156818360  SOLV      3885            0.0000000000
     11528      3816  TIP3      OH2             8.0648164810       37.3279567438       46.6078418360  SOLV      3886            0.0000000000
     11529      3816  TIP3      H1              7.9472364810       36.3795567438       46.5536718360  SOLV      3886            0.0000000000
     11530      3816  TIP3      H2              7.2098264810       37.6605667438       46.8809518360  SOLV      3886            0.0000000000
     11531      3817  TIP3      OH2            10.3313064810       46.1655167438       41.1084218360  SOLV      3887            0.0000000000
     11532      3817  TIP3      H1              9.6198564810       46.7004867438       40.7564718360  SOLV      3887            0.0000000000
     11533      3817  TIP3      H2             11.0222664810       46.2207267438       40.4483118360  SOLV      3887            0.0000000000
     11534      3818  TIP3      OH2            10.3852264810       44.6229467438       38.1469218360  SOLV      3888            0.0000000000
     11535      3818  TIP3      H1             11.0862164810       44.6456367438       38.7983218360  SOLV      3888            0.0000000000
     11536      3818  TIP3      H2             10.6875164810       43.9949167438       37.4908518360  SOLV      3888            0.0000000000
     11537      3819  TIP3      OH2            17.7006964810       45.5433667438       49.4018618360  SOLV      3889            0.0000000000
     11538      3819  TIP3      H1             17.0481064810       46.2379267438       49.4909518360  SOLV      3889            0.0000000000
     11539      3819  TIP3      H2             18.1657264810       45.7534567438       48.5920218360  SOLV      3889            0.0000000000
     11540      3820  TIP3      OH2            13.7370764810       46.3748467438       42.0600118360  SOLV      3890            0.0000000000
     11541      3820  TIP3      H1             13.0051764810       46.6032167438       42.6330718360  SOLV      3890            0.0000000000
     11542      3820  TIP3      H2             14.1842964810       45.6611167438       42.5147618360  SOLV      3890            0.0000000000
     11543      3821  TIP3      OH2            12.6080264810       45.5371367438       39.7451318360  SOLV      3893            0.0000000000
     11544      3821  TIP3      H1             13.1875764810       45.6871667438       40.4920218360  SOLV      3893            0.0000000000
     11545      3821  TIP3      H2             13.0220264810       46.0078767438       39.0217718360  SOLV      3893            0.0000000000
     11546      3822  TIP3      OH2            16.3068664810       37.2871767438       39.5581018360  SOLV      3894            0.0000000000
     11547      3822  TIP3      H1             15.4069364810       37.4260767438       39.8531618360  SOLV      3894            0.0000000000
     11548      3822  TIP3      H2             16.5587064810       38.1186367438       39.1562718360  SOLV      3894            0.0000000000
     11549      3823  TIP3      OH2             5.3335764810       38.2314067438       47.3854718360  SOLV      3896            0.0000000000
     11550      3823  TIP3      H1              4.4719464810       38.1442267438       46.9777618360  SOLV      3896            0.0000000000
     11551      3823  TIP3      H2              5.3111464810       39.0874167438       47.8132318360  SOLV      3896            0.0000000000
     11552      3824  TIP3      OH2            14.0853364810       46.5699667438       37.3749218360  SOLV      3897            0.0000000000
     11553      3824  TIP3      H1             14.1274164810       46.3473567438       36.4449218360  SOLV      3897            0.0000000000
     11554      3824  TIP3      H2             14.9345464810       46.9686767438       37.5649118360  SOLV      3897            0.0000000000
     11555      3825  TIP3      OH2             9.6580864810       40.4457867438       38.0452518360  SOLV      3898            0.0000000000
     11556      3825  TIP3      H1              9.4045664810       40.4649467438       38.9680618360  SOLV      3898            0.0000000000
     11557      3825  TIP3      H2              9.4012964810       39.5743267438       37.7438718360  SOLV      3898            0.0000000000
     11558      3826  TIP3      OH2            10.9570464810       43.8338967438       42.2095718360  SOLV      3901            0.0000000000
     11559      3826  TIP3      H1             10.5480764810       44.6487567438       41.9180518360  SOLV      3901            0.0000000000
     11560      3826  TIP3      H2             11.6776664810       43.6939067438       41.5952818360  SOLV      3901            0.0000000000
     11561      3827  TIP3      OH2            11.9618164810       43.2799367438       45.0235418360  SOLV      3902            0.0000000000
     11562      3827  TIP3      H1             11.7662664810       43.8856167438       44.3086018360  SOLV      3902            0.0000000000
     11563      3827  TIP3      H2             12.1430764810       42.4464567438       44.5891718360  SOLV      3902            0.0000000000
     11564      3828  TIP3      OH2             6.5403764810       40.8914367438       37.1462918360  SOLV      3903            0.0000000000
     11565      3828  TIP3      H1              6.1094464810       40.4464467438       37.8760318360  SOLV      3903            0.0000000000
     11566      3828  TIP3      H2              5.8222464810       41.2630667438       36.6340418360  SOLV      3903            0.0000000000
     11567      3829  TIP3      OH2            -0.2172835190       40.6333867438       44.1981618360  SOLV      3904            0.0000000000
     11568      3829  TIP3      H1              0.4134864810       40.6045967438       44.9175518360  SOLV      3904            0.0000000000
     11569      3829  TIP3      H2              0.2321464810       40.2082567438       43.4677518360  SOLV      3904            0.0000000000
     11570      3830  TIP3      OH2             1.0569264810       41.3795867438       39.6222018360  SOLV      3905            0.0000000000
     11571      3830  TIP3      H1              1.5310964810       41.9705767438       39.0372918360  SOLV      3905            0.0000000000
     11572      3830  TIP3      H2              0.3395664810       41.9098767438       39.9692118360  SOLV      3905            0.0000000000
     11573      3831  TIP3      OH2             8.0030264810       40.8456167438       44.4789018360  SOLV      3907            0.0000000000
     11574      3831  TIP3      H1              7.0921364810       40.9022967438       44.7675018360  SOLV      3907            0.0000000000
     11575      3831  TIP3      H2              8.5083164810       40.7851667438       45.2896218360  SOLV      3907            0.0000000000
     11576      3832  TIP3      OH2             6.4845464810       42.4745067438       40.9621218360  SOLV      3909            0.0000000000
     11577      3832  TIP3      H1              7.4160964810       42.6035067438       41.1404318360  SOLV      3909            0.0000000000
     11578      3832  TIP3      H2              6.2695764810       43.1439367438       40.3125918360  SOLV      3909            0.0000000000
     11579      3833  TIP3      OH2            12.4082164810       40.0802467438       47.7430818360  SOLV      3910            0.0000000000
     11580      3833  TIP3      H1             11.7313764810       40.2115567438       48.4070518360  SOLV      3910            0.0000000000
     11581      3833  TIP3      H2             11.9227064810       39.9251967438       46.9328518360  SOLV      3910            0.0000000000
     11582      3834  TIP3      OH2             5.1585664810       43.6687267438       38.5287318360  SOLV      3911            0.0000000000
     11583      3834  TIP3      H1              4.6160764810       43.2891067438       37.8374918360  SOLV      3911            0.0000000000
     11584      3834  TIP3      H2              5.9920564810       43.8631967438       38.1001418360  SOLV      3911            0.0000000000
     11585      3835  TIP3      OH2             4.3249664810       39.7695267438       42.7843418360  SOLV      3913            0.0000000000
     11586      3835  TIP3      H1              4.0079164810       38.8670567438       42.7488818360  SOLV      3913            0.0000000000
     11587      3835  TIP3      H2              5.1063764810       39.7712667438       42.2315018360  SOLV      3913            0.0000000000
     11588      3836  TIP3      OH2            15.6437364810       47.3671167438       49.2513018360  SOLV      3916            0.0000000000
     11589      3836  TIP3      H1             16.2856164810       47.8237467438       48.7075218360  SOLV      3916            0.0000000000
     11590      3836  TIP3      H2             14.8134264810       47.4803567438       48.7887118360  SOLV      3916            0.0000000000
     11591      3837  TIP3      OH2            12.3915264810       41.0482867438       38.6638018360  SOLV      3917            0.0000000000
     11592      3837  TIP3      H1             11.4529464810       41.1598467438       38.5126818360  SOLV      3917            0.0000000000
     11593      3837  TIP3      H2             12.6887364810       41.9049767438       38.9703718360  SOLV      3917            0.0000000000
     11594      3838  TIP3      OH2            13.1098764810       42.9155567438       40.3245418360  SOLV      3918            0.0000000000
     11595      3838  TIP3      H1             14.0017764810       42.7780567438       40.6436618360  SOLV      3918            0.0000000000
     11596      3838  TIP3      H2             13.1662364810       43.7061667438       39.7878918360  SOLV      3918            0.0000000000
     11597      3839  TIP3      OH2            10.6192564810       49.6927267438       39.4900018360  SOLV      3920            0.0000000000
     11598      3839  TIP3      H1             10.3240964810       50.5195167438       39.8714818360  SOLV      3920            0.0000000000
     11599      3839  TIP3      H2              9.9162564810       49.0734167438       39.6861418360  SOLV      3920            0.0000000000
     11600      3840  TIP3      OH2            17.9947464810       43.1249667438       40.0192118360  SOLV      3921            0.0000000000
     11601      3840  TIP3      H1             17.4403764810       42.7287667438       39.3469618360  SOLV      3921            0.0000000000
     11602      3840  TIP3      H2             18.0951064810       44.0354867438       39.7415418360  SOLV      3921            0.0000000000
     11603      3841  TIP3      OH2            13.4503064810       46.7189567438       47.5056118360  SOLV      3922            0.0000000000
     11604      3841  TIP3      H1             12.5219964810       46.4871467438       47.4785418360  SOLV      3922            0.0000000000
     11605      3841  TIP3      H2             13.9014164810       45.9419367438       47.1754918360  SOLV      3922            0.0000000000
     11606      3842  TIP3      OH2            13.6824764810       49.8875867438       38.3044818360  SOLV      3926            0.0000000000
     11607      3842  TIP3      H1             14.0357864810       49.5075667438       39.1088318360  SOLV      3926            0.0000000000
     11608      3842  TIP3      H2             12.7338264810       49.7940667438       38.3914118360  SOLV      3926            0.0000000000
     11609      3843  TIP3      OH2            14.5484064810       48.5597867438       40.5312718360  SOLV      3927            0.0000000000
     11610      3843  TIP3      H1             14.2711664810       47.8317167438       41.0873818360  SOLV      3927            0.0000000000
     11611      3843  TIP3      H2             15.4757064810       48.6789867438       40.7365318360  SOLV      3927            0.0000000000
     11612      3844  TIP3      OH2            11.7794264810       40.1364567438       41.0944118360  SOLV      3929            0.0000000000
     11613      3844  TIP3      H1             11.9992564810       40.6079967438       40.2909518360  SOLV      3929            0.0000000000
     11614      3844  TIP3      H2             12.3378264810       40.5307167438       41.7644718360  SOLV      3929            0.0000000000
     11615      3845  TIP3      OH2             8.9794164810       41.8643367438       41.9292518360  SOLV      3930            0.0000000000
     11616      3845  TIP3      H1              9.7916764810       42.3686567438       41.9754218360  SOLV      3930            0.0000000000
     11617      3845  TIP3      H2              8.7347164810       41.7193067438       42.8432118360  SOLV      3930            0.0000000000
     11618      3846  TIP3      OH2             9.8630864810       38.9456367438       42.8673618360  SOLV      3931            0.0000000000
     11619      3846  TIP3      H1              9.5164364810       39.5626967438       43.5117918360  SOLV      3931            0.0000000000
     11620      3846  TIP3      H2             10.5217764810       39.4462067438       42.3859118360  SOLV      3931            0.0000000000
     11621      3847  TIP3      OH2             5.5207864810       40.0085767438       39.5546118360  SOLV      3932            0.0000000000
     11622      3847  TIP3      H1              5.4372664810       40.8968867438       39.9012518360  SOLV      3932            0.0000000000
     11623      3847  TIP3      H2              6.4108164810       39.7432467438       39.7862918360  SOLV      3932            0.0000000000
     11624      3848  TIP3      OH2            14.3217364810       44.5077367438       46.0446118360  SOLV      3933            0.0000000000
     11625      3848  TIP3      H1             13.5241764810       44.0927567438       45.7161118360  SOLV      3933            0.0000000000
     11626      3848  TIP3      H2             14.7668464810       43.8171067438       46.5356618360  SOLV      3933            0.0000000000
     11627      3849  TIP3      OH2             2.0952364810       43.1000967438       37.7310018360  SOLV      3934            0.0000000000
     11628      3849  TIP3      H1              2.0504964810       44.0394067438       37.9097018360  SOLV      3934            0.0000000000
     11629      3849  TIP3      H2              1.2075564810       42.8645867438       37.4612118360  SOLV      3934            0.0000000000
     11630      3850  TIP3      OH2             2.9034364810       37.8817567438       46.4041018360  SOLV      3935            0.0000000000
     11631      3850  TIP3      H1              2.6744164810       37.9410067438       45.4766018360  SOLV      3935            0.0000000000
     11632      3850  TIP3      H2              2.4607764810       37.0903067438       46.7105118360  SOLV      3935            0.0000000000
     11633      3851  TIP3      OH2             5.3704564810       48.5888167438       36.9813718360  SOLV      3936            0.0000000000
     11634      3851  TIP3      H1              5.4348664810       47.7947767438       37.5120118360  SOLV      3936            0.0000000000
     11635      3851  TIP3      H2              6.0233764810       48.4700967438       36.2915718360  SOLV      3936            0.0000000000
     11636      3852  TIP3      OH2            10.7227964810       49.6359867438       36.7171718360  SOLV      3937            0.0000000000
     11637      3852  TIP3      H1             10.4542064810       49.8161967438       37.6180618360  SOLV      3937            0.0000000000
     11638      3852  TIP3      H2             10.5163564810       48.7106067438       36.5857518360  SOLV      3937            0.0000000000
     11639      3853  TIP3      OH2             7.5908764810       44.8046167438       37.5494918360  SOLV      3939            0.0000000000
     11640      3853  TIP3      H1              7.4103764810       44.6497367438       36.6223218360  SOLV      3939            0.0000000000
     11641      3853  TIP3      H2              8.5409264810       44.9124867438       37.5942818360  SOLV      3939            0.0000000000
     11642      3854  TIP3      OH2            16.9807064810       47.1590367438       36.9953018360  SOLV      3940            0.0000000000
     11643      3854  TIP3      H1             16.7071864810       46.7345867438       36.1821318360  SOLV      3940            0.0000000000
     11644      3854  TIP3      H2             17.0201164810       48.0904867438       36.7783418360  SOLV      3940            0.0000000000
     11645      3855  TIP3      OH2            17.4389864810       48.0278467438       40.9703418360  SOLV      3941            0.0000000000
     11646      3855  TIP3      H1             18.2891264810       48.4489367438       41.0975018360  SOLV      3941            0.0000000000
     11647      3855  TIP3      H2             17.4444964810       47.2878567438       41.5774818360  SOLV      3941            0.0000000000
     11648      3856  TIP3      OH2            17.8335464810       46.0815867438       42.7939118360  SOLV      3942            0.0000000000
     11649      3856  TIP3      H1             17.1070064810       45.6018467438       43.1916718360  SOLV      3942            0.0000000000
     11650      3856  TIP3      H2             18.4148764810       46.2870567438       43.5260718360  SOLV      3942            0.0000000000
     11651      3857  TIP3      OH2            17.5926664810       48.8663367438       47.7416718360  SOLV      3943            0.0000000000
     11652      3857  TIP3      H1             18.4260864810       48.4883367438       47.4610318360  SOLV      3943            0.0000000000
     11653      3857  TIP3      H2             17.7046964810       49.8094567438       47.6225818360  SOLV      3943            0.0000000000
     11654      3858  TIP3      OH2            18.1018564810       45.9824367438       39.1850418360  SOLV      3944            0.0000000000
     11655      3858  TIP3      H1             17.5799664810       46.3388467438       38.4661318360  SOLV      3944            0.0000000000
     11656      3858  TIP3      H2             18.0687764810       46.6572167438       39.8631318360  SOLV      3944            0.0000000000
     11657      3859  TIP3      OH2            16.4507564810       43.2219967438       37.7357518360  SOLV      3945            0.0000000000
     11658      3859  TIP3      H1             16.5471964810       43.8886967438       37.0557218360  SOLV      3945            0.0000000000
     11659      3859  TIP3      H2             16.3107164810       42.4066267438       37.2543018360  SOLV      3945            0.0000000000
     11660      3860  TIP3      OH2            15.6202264810       44.6022367438       43.3567818360  SOLV      3946            0.0000000000
     11661      3860  TIP3      H1             15.4701064810       43.6570967438       43.3365618360  SOLV      3946            0.0000000000
     11662      3860  TIP3      H2             15.2666764810       44.8833767438       44.2006918360  SOLV      3946            0.0000000000
     11663      3861  TIP3      OH2            15.6981364810       40.6299767438       36.8533018360  SOLV      3948            0.0000000000
     11664      3861  TIP3      H1             16.3087164810       40.2586567438       37.4901218360  SOLV      3948            0.0000000000
     11665      3861  TIP3      H2             14.8612864810       40.2086667438       37.0493018360  SOLV      3948            0.0000000000
     11666      3862  TIP3      OH2            15.3307064810       42.1848167438       41.8192918360  SOLV      3949            0.0000000000
     11667      3862  TIP3      H1             15.6104164810       41.2778567438       41.9434618360  SOLV      3949            0.0000000000
     11668      3862  TIP3      H2             16.0898764810       42.6189667438       41.4302118360  SOLV      3949            0.0000000000
     11669      3863  TIP3      OH2            15.9425364810       42.7665567438       47.2551818360  SOLV      3950            0.0000000000
     11670      3863  TIP3      H1             16.8753364810       42.9785467438       47.2207818360  SOLV      3950            0.0000000000
     11671      3863  TIP3      H2             15.7072864810       42.8677667438       48.1774818360  SOLV      3950            0.0000000000
     11672      3864  TIP3      OH2            15.9441864810       39.4477467438       41.8674918360  SOLV      3951            0.0000000000
     11673      3864  TIP3      H1             16.1266864810       38.9988967438       42.6929918360  SOLV      3951            0.0000000000
     11674      3864  TIP3      H2             15.3444764810       38.8631867438       41.4039518360  SOLV      3951            0.0000000000
     11675      3865  TIP3      OH2             1.4741964810       40.2631167438       46.3993318360  SOLV      3952            0.0000000000
     11676      3865  TIP3      H1              1.9193564810       39.4713667438       46.7013018360  SOLV      3952            0.0000000000
     11677      3865  TIP3      H2              1.9404964810       40.9796367438       46.8298918360  SOLV      3952            0.0000000000
     11678      3866  TIP3      OH2            -0.2217735190       43.2624167438       47.4683518360  SOLV      3953            0.0000000000
     11679      3866  TIP3      H1              0.2702064810       43.0414667438       46.6775518360  SOLV      3953            0.0000000000
     11680      3866  TIP3      H2              0.1403164810       44.1027567438       47.7493018360  SOLV      3953            0.0000000000
     11681      3867  TIP3      OH2            17.8108064810       39.5155567438       38.3955218360  SOLV      3954            0.0000000000
     11682      3867  TIP3      H1             18.2230664810       38.7941267438       37.9203218360  SOLV      3954            0.0000000000
     11683      3867  TIP3      H2             18.4924564810       40.1850167438       38.4539518360  SOLV      3954            0.0000000000
     11684      3868  TIP3      OH2            10.2050464810       39.1312567438       45.8756518360  SOLV      3955            0.0000000000
     11685      3868  TIP3      H1              9.5307264810       38.5018167438       46.1312318360  SOLV      3955            0.0000000000
     11686      3868  TIP3      H2             10.7689664810       38.6471467438       45.2724418360  SOLV      3955            0.0000000000
     11687      3869  TIP3      OH2            15.3477664810       37.2386567438       45.9883618360  SOLV      3956            0.0000000000
     11688      3869  TIP3      H1             15.9515264810       37.7861967438       45.4864618360  SOLV      3956            0.0000000000
     11689      3869  TIP3      H2             14.4779664810       37.5576967438       45.7477718360  SOLV      3956            0.0000000000
     11690      3870  TIP3      OH2            17.0748064810       38.3775267438       44.3214518360  SOLV      3957            0.0000000000
     11691      3870  TIP3      H1             17.6865564810       37.8630967438       43.7948118360  SOLV      3957            0.0000000000
     11692      3870  TIP3      H2             17.4571464810       39.2547367438       44.3448918360  SOLV      3957            0.0000000000
     11693      3871  TIP3      OH2             2.5317964810       37.7652867438       43.6976418360  SOLV      3958            0.0000000000
     11694      3871  TIP3      H1              1.7547764810       37.5307767438       43.1902318360  SOLV      3958            0.0000000000
     11695      3871  TIP3      H2              3.0621564810       36.9684967438       43.7064418360  SOLV      3958            0.0000000000
     11696      3872  TIP3      OH2             1.3681364810       37.5630967438       39.5012518360  SOLV      3959            0.0000000000
     11697      3872  TIP3      H1              1.8072064810       38.1741467438       38.9096018360  SOLV      3959            0.0000000000
     11698      3872  TIP3      H2              0.7343764810       38.1015067438       39.9752518360  SOLV      3959            0.0000000000
     11699      3873  TIP3      OH2             7.1110564810       37.6919967438       43.5109518360  SOLV      3960            0.0000000000
     11700      3873  TIP3      H1              7.9853964810       38.0804267438       43.4813818360  SOLV      3960            0.0000000000
     11701      3873  TIP3      H2              6.9751364810       37.4767767438       44.4336718360  SOLV      3960            0.0000000000
     11702      3874  TIP3      OH2            12.6678964810       37.7219767438       45.1601218360  SOLV      3961            0.0000000000
     11703      3874  TIP3      H1             12.7440564810       37.8171367438       44.2107218360  SOLV      3961            0.0000000000
     11704      3874  TIP3      H2             12.3928164810       36.8142667438       45.2890318360  SOLV      3961            0.0000000000
     11705      3875  TIP3      OH2            14.0211564810       37.7477567438       40.8526218360  SOLV      3962            0.0000000000
     11706      3875  TIP3      H1             13.3182664810       38.3626767438       40.6427618360  SOLV      3962            0.0000000000
     11707      3875  TIP3      H2             13.5762964810       36.9104267438       40.9837118360  SOLV      3962            0.0000000000
     11708      3876  TIP3      OH2             3.2290464810       39.4792467438       37.9436618360  SOLV      3963            0.0000000000
     11709      3876  TIP3      H1              3.7203864810       38.8494867438       37.4162118360  SOLV      3963            0.0000000000
     11710      3876  TIP3      H2              3.8526764810       39.7751867438       38.6067818360  SOLV      3963            0.0000000000
     11711      3877  TIP3      OH2             8.2550564810       39.7723967438       40.4007118360  SOLV      3964            0.0000000000
     11712      3877  TIP3      H1              8.4331864810       39.1257167438       41.0835718360  SOLV      3964            0.0000000000
     11713      3877  TIP3      H2              8.2016764810       40.6061667438       40.8678218360  SOLV      3964            0.0000000000
     11714      3878  TIP3      OH2            30.1100564810       46.9215167438       43.6563918360  SOLV      3965            0.0000000000
     11715      3878  TIP3      H1             30.1991664810       47.8653367438       43.5241018360  SOLV      3965            0.0000000000
     11716      3878  TIP3      H2             29.4718164810       46.6461567438       42.9983318360  SOLV      3965            0.0000000000
     11717      3879  TIP3      OH2            29.0431864810       46.1765867438       47.0752118360  SOLV      3966            0.0000000000
     11718      3879  TIP3      H1             29.0049364810       45.5302167438       47.7801718360  SOLV      3966            0.0000000000
     11719      3879  TIP3      H2             28.7208364810       45.7100267438       46.3040818360  SOLV      3966            0.0000000000
     11720      3880  TIP3      OH2            21.4116864810       45.7907967438       48.6682018360  SOLV      3967            0.0000000000
     11721      3880  TIP3      H1             21.4528964810       45.1651267438       49.3914418360  SOLV      3967            0.0000000000
     11722      3880  TIP3      H2             22.1144564810       46.4146567438       48.8502418360  SOLV      3967            0.0000000000
     11723      3881  TIP3      OH2            32.7492064810       49.1156267438       45.3767218360  SOLV      3968            0.0000000000
     11724      3881  TIP3      H1             32.3084764810       48.3952267438       45.8272818360  SOLV      3968            0.0000000000
     11725      3881  TIP3      H2             32.7361764810       49.8363467438       46.0064918360  SOLV      3968            0.0000000000
     11726      3882  TIP3      OH2            18.9450464810       43.9009467438       42.5959918360  SOLV      3969            0.0000000000
     11727      3882  TIP3      H1             18.4973864810       44.7468167438       42.5776418360  SOLV      3969            0.0000000000
     11728      3882  TIP3      H2             18.3841664810       43.3213667438       42.0805018360  SOLV      3969            0.0000000000
     11729      3883  TIP3      OH2            19.6556564810       46.0629067438       44.7217918360  SOLV      3970            0.0000000000
     11730      3883  TIP3      H1             19.8690064810       45.2930667438       45.2490918360  SOLV      3970            0.0000000000
     11731      3883  TIP3      H2             20.3934164810       46.1525767438       44.1185518360  SOLV      3970            0.0000000000
     11732      3884  TIP3      OH2            27.4326264810       48.6087267438       47.4813118360  SOLV      3971            0.0000000000
     11733      3884  TIP3      H1             27.7364164810       47.9228667438       46.8867218360  SOLV      3971            0.0000000000
     11734      3884  TIP3      H2             28.1540264810       48.7275967438       48.0991118360  SOLV      3971            0.0000000000
     11735      3885  TIP3      OH2            36.0956064810       40.2102567438       48.3419318360  SOLV      3972            0.0000000000
     11736      3885  TIP3      H1             36.1448264810       40.8203767438       49.0778418360  SOLV      3972            0.0000000000
     11737      3885  TIP3      H2             36.5211164810       40.6713467438       47.6190418360  SOLV      3972            0.0000000000
     11738      3886  TIP3      OH2            30.5733264810       43.0029667438       47.8087918360  SOLV      3973            0.0000000000
     11739      3886  TIP3      H1             30.7159164810       42.0566667438       47.8289518360  SOLV      3973            0.0000000000
     11740      3886  TIP3      H2             30.4672264810       43.2099467438       46.8802818360  SOLV      3973            0.0000000000
     11741      3887  TIP3      OH2            23.7281564810       41.1046067438       45.0812718360  SOLV      3974            0.0000000000
     11742      3887  TIP3      H1             23.7712664810       41.9644567438       44.6629018360  SOLV      3974            0.0000000000
     11743      3887  TIP3      H2             23.2705664810       40.5520767438       44.4475918360  SOLV      3974            0.0000000000
     11744      3888  TIP3      OH2            31.4504264810       41.2351667438       43.4821018360  SOLV      3975            0.0000000000
     11745      3888  TIP3      H1             32.0968564810       40.9064867438       44.1068618360  SOLV      3975            0.0000000000
     11746      3888  TIP3      H2             31.9603664810       41.7530667438       42.8592418360  SOLV      3975            0.0000000000
     11747      3889  TIP3      OH2            20.3483064810       43.5011867438       45.8434118360  SOLV      3976            0.0000000000
     11748      3889  TIP3      H1             21.0019664810       42.9513567438       46.2754218360  SOLV      3976            0.0000000000
     11749      3889  TIP3      H2             20.3722364810       43.2270867438       44.9266118360  SOLV      3976            0.0000000000
     11750      3890  TIP3      OH2            25.5047564810       45.0513167438       45.0585618360  SOLV      3977            0.0000000000
     11751      3890  TIP3      H1             26.1208564810       44.5248567438       45.5679618360  SOLV      3977            0.0000000000
     11752      3890  TIP3      H2             24.9186364810       44.4111867438       44.6549218360  SOLV      3977            0.0000000000
     11753      3891  TIP3      OH2            22.5383464810       40.0224467438       49.1553518360  SOLV      3978            0.0000000000
     11754      3891  TIP3      H1             22.3195164810       40.5525067438       48.3889518360  SOLV      3978            0.0000000000
     11755      3891  TIP3      H2             21.8704364810       40.2489967438       49.8024918360  SOLV      3978            0.0000000000
     11756      3892  TIP3      OH2            29.9073264810       49.5225567438       42.6992618360  SOLV      3979            0.0000000000
     11757      3892  TIP3      H1             29.6118364810       49.1997867438       41.8479518360  SOLV      3979            0.0000000000
     11758      3892  TIP3      H2             29.5831064810       50.4222267438       42.7405218360  SOLV      3979            0.0000000000
     11759      3893  TIP3      OH2            25.1074864810       47.6980167438       49.4427218360  SOLV      3980            0.0000000000
     11760      3893  TIP3      H1             24.3673964810       48.2961667438       49.5462418360  SOLV      3980            0.0000000000
     11761      3893  TIP3      H2             25.8214364810       48.2519767438       49.1270818360  SOLV      3980            0.0000000000
     11762      3894  TIP3      OH2            33.2142664810       40.5260967438       45.4626918360  SOLV      3981            0.0000000000
     11763      3894  TIP3      H1             32.9990664810       39.7604367438       45.9952918360  SOLV      3981            0.0000000000
     11764      3894  TIP3      H2             33.8700064810       40.9985567438       45.9755418360  SOLV      3981            0.0000000000
     11765      3895  TIP3      OH2            22.1320764810       41.9146267438       47.1075718360  SOLV      3982            0.0000000000
     11766      3895  TIP3      H1             22.7457064810       42.5473867438       47.4808118360  SOLV      3982            0.0000000000
     11767      3895  TIP3      H2             22.6441464810       41.4421267438       46.4512618360  SOLV      3982            0.0000000000
     11768      3896  TIP3      OH2            19.6360064810       49.3331067438       41.0118018360  SOLV      3983            0.0000000000
     11769      3896  TIP3      H1             19.3640964810       49.5622067438       40.1230918360  SOLV      3983            0.0000000000
     11770      3896  TIP3      H2             19.6815764810       50.1709867438       41.4723318360  SOLV      3983            0.0000000000
     11771      3897  TIP3      OH2            33.5616764810       39.2412267438       49.1420418360  SOLV      3984            0.0000000000
     11772      3897  TIP3      H1             32.8255964810       39.8519367438       49.1041718360  SOLV      3984            0.0000000000
     11773      3897  TIP3      H2             34.2450764810       39.6561267438       48.6156818360  SOLV      3984            0.0000000000
     11774      3898  TIP3      OH2            26.5648164810       37.3279567438       46.6078418360  SOLV      3985            0.0000000000
     11775      3898  TIP3      H1             26.4472364810       36.3795567438       46.5536718360  SOLV      3985            0.0000000000
     11776      3898  TIP3      H2             25.7098264810       37.6605667438       46.8809518360  SOLV      3985            0.0000000000
     11777      3899  TIP3      OH2            28.8313064810       46.1655167438       41.1084218360  SOLV      3986            0.0000000000
     11778      3899  TIP3      H1             28.1198564810       46.7004867438       40.7564718360  SOLV      3986            0.0000000000
     11779      3899  TIP3      H2             29.5222664810       46.2207267438       40.4483118360  SOLV      3986            0.0000000000
     11780      3900  TIP3      OH2            28.8852264810       44.6229467438       38.1469218360  SOLV      3987            0.0000000000
     11781      3900  TIP3      H1             29.5862164810       44.6456367438       38.7983218360  SOLV      3987            0.0000000000
     11782      3900  TIP3      H2             29.1875164810       43.9949167438       37.4908518360  SOLV      3987            0.0000000000
     11783      3901  TIP3      OH2            36.2006964810       45.5433667438       49.4018618360  SOLV      3988            0.0000000000
     11784      3901  TIP3      H1             35.5481064810       46.2379267438       49.4909518360  SOLV      3988            0.0000000000
     11785      3901  TIP3      H2             36.6657264810       45.7534567438       48.5920218360  SOLV      3988            0.0000000000
     11786      3902  TIP3      OH2            32.2370764810       46.3748467438       42.0600118360  SOLV      3989            0.0000000000
     11787      3902  TIP3      H1             31.5051764810       46.6032167438       42.6330718360  SOLV      3989            0.0000000000
     11788      3902  TIP3      H2             32.6842964810       45.6611167438       42.5147618360  SOLV      3989            0.0000000000
     11789      3903  TIP3      OH2            23.8824464810       47.0054667438       43.9425118360  SOLV      3990            0.0000000000
     11790      3903  TIP3      H1             23.5519664810       46.6348067438       43.1242118360  SOLV      3990            0.0000000000
     11791      3903  TIP3      H2             24.4708564810       46.3348667438       44.2893418360  SOLV      3990            0.0000000000
     11792      3904  TIP3      OH2            24.2489964810       45.7740267438       47.5760118360  SOLV      3991            0.0000000000
     11793      3904  TIP3      H1             24.8142464810       45.8954467438       46.8131318360  SOLV      3991            0.0000000000
     11794      3904  TIP3      H2             24.5678864810       46.4115267438       48.2148618360  SOLV      3991            0.0000000000
     11795      3905  TIP3      OH2            31.1080264810       45.5371367438       39.7451318360  SOLV      3992            0.0000000000
     11796      3905  TIP3      H1             31.6875764810       45.6871667438       40.4920218360  SOLV      3992            0.0000000000
     11797      3905  TIP3      H2             31.5220264810       46.0078767438       39.0217718360  SOLV      3992            0.0000000000
     11798      3906  TIP3      OH2            34.8068664810       37.2871767438       39.5581018360  SOLV      3993            0.0000000000
     11799      3906  TIP3      H1             33.9069364810       37.4260767438       39.8531618360  SOLV      3993            0.0000000000
     11800      3906  TIP3      H2             35.0587064810       38.1186367438       39.1562718360  SOLV      3993            0.0000000000
     11801      3907  TIP3      OH2            22.8727164810       46.0748967438       41.5317918360  SOLV      3994            0.0000000000
     11802      3907  TIP3      H1             22.5808464810       46.8430667438       41.0409218360  SOLV      3994            0.0000000000
     11803      3907  TIP3      H2             22.1982364810       45.4155167438       41.3689318360  SOLV      3994            0.0000000000
     11804      3908  TIP3      OH2            23.8335764810       38.2314067438       47.3854718360  SOLV      3995            0.0000000000
     11805      3908  TIP3      H1             22.9719464810       38.1442267438       46.9777618360  SOLV      3995            0.0000000000
     11806      3908  TIP3      H2             23.8111464810       39.0874167438       47.8132318360  SOLV      3995            0.0000000000
     11807      3909  TIP3      OH2            32.5853364810       46.5699667438       37.3749218360  SOLV      3996            0.0000000000
     11808      3909  TIP3      H1             32.6274164810       46.3473567438       36.4449218360  SOLV      3996            0.0000000000
     11809      3909  TIP3      H2             33.4345464810       46.9686767438       37.5649118360  SOLV      3996            0.0000000000
     11810      3910  TIP3      OH2            28.1580864810       40.4457867438       38.0452518360  SOLV      3997            0.0000000000
     11811      3910  TIP3      H1             27.9045664810       40.4649467438       38.9680618360  SOLV      3997            0.0000000000
     11812      3910  TIP3      H2             27.9012964810       39.5743267438       37.7438718360  SOLV      3997            0.0000000000
     11813      3911  TIP3      OH2            23.9245864810       43.1968567438       48.4804918360  SOLV      3998            0.0000000000
     11814      3911  TIP3      H1             23.2827964810       43.1565867438       49.1895018360  SOLV      3998            0.0000000000
     11815      3911  TIP3      H2             23.9617864810       44.1233267438       48.2427918360  SOLV      3998            0.0000000000
     11816      3912  TIP3      OH2            23.9214964810       43.4178667438       43.3924918360  SOLV      3999            0.0000000000
     11817      3912  TIP3      H1             23.0287864810       43.0774767438       43.3338718360  SOLV      3999            0.0000000000
     11818      3912  TIP3      H2             24.3721564810       43.0409567438       42.6368118360  SOLV      3999            0.0000000000
     11819      3913  TIP3      OH2            29.4570464810       43.8338967438       42.2095718360  SOLV      4000            0.0000000000
     11820      3913  TIP3      H1             29.0480764810       44.6487567438       41.9180518360  SOLV      4000            0.0000000000
     11821      3913  TIP3      H2             30.1776664810       43.6939067438       41.5952818360  SOLV      4000            0.0000000000
     11822      3914  TIP3      OH2            30.4618164810       43.2799367438       45.0235418360  SOLV      4001            0.0000000000
     11823      3914  TIP3      H1             30.2662664810       43.8856167438       44.3086018360  SOLV      4001            0.0000000000
     11824      3914  TIP3      H2             30.6430764810       42.4464567438       44.5891718360  SOLV      4001            0.0000000000
     11825      3915  TIP3      OH2            25.0403764810       40.8914367438       37.1462918360  SOLV      4002            0.0000000000
     11826      3915  TIP3      H1             24.6094464810       40.4464467438       37.8760318360  SOLV      4002            0.0000000000
     11827      3915  TIP3      H2             24.3222464810       41.2630667438       36.6340418360  SOLV      4002            0.0000000000
     11828      3916  TIP3      OH2            18.2827164810       40.6333867438       44.1981618360  SOLV      4003            0.0000000000
     11829      3916  TIP3      H1             18.9134864810       40.6045967438       44.9175518360  SOLV      4003            0.0000000000
     11830      3916  TIP3      H2             18.7321464810       40.2082567438       43.4677518360  SOLV      4003            0.0000000000
     11831      3917  TIP3      OH2            19.5569264810       41.3795867438       39.6222018360  SOLV      4004            0.0000000000
     11832      3917  TIP3      H1             20.0310964810       41.9705767438       39.0372918360  SOLV      4004            0.0000000000
     11833      3917  TIP3      H2             18.8395664810       41.9098767438       39.9692118360  SOLV      4004            0.0000000000
     11834      3918  TIP3      OH2            29.7257364810       44.9180667438       49.6947818360  SOLV      4005            0.0000000000
     11835      3918  TIP3      H1             30.0492164810       44.2870367438       49.0518318360  SOLV      4005            0.0000000000
     11836      3918  TIP3      H2             29.2856664810       44.3832867438       50.3555218360  SOLV      4005            0.0000000000
     11837      3919  TIP3      OH2            26.5030264810       40.8456167438       44.4789018360  SOLV      4006            0.0000000000
     11838      3919  TIP3      H1             25.5921364810       40.9022967438       44.7675018360  SOLV      4006            0.0000000000
     11839      3919  TIP3      H2             27.0083164810       40.7851667438       45.2896218360  SOLV      4006            0.0000000000
     11840      3920  TIP3      OH2            21.3313664810       42.4742467438       43.3056618360  SOLV      4007            0.0000000000
     11841      3920  TIP3      H1             20.4421664810       42.5737967438       42.9656218360  SOLV      4007            0.0000000000
     11842      3920  TIP3      H2             21.6278564810       41.6325467438       42.9594518360  SOLV      4007            0.0000000000
     11843      3921  TIP3      OH2            24.9845464810       42.4745067438       40.9621218360  SOLV      4008            0.0000000000
     11844      3921  TIP3      H1             25.9160964810       42.6035067438       41.1404318360  SOLV      4008            0.0000000000
     11845      3921  TIP3      H2             24.7695764810       43.1439367438       40.3125918360  SOLV      4008            0.0000000000
     11846      3922  TIP3      OH2            30.9082164810       40.0802467438       47.7430818360  SOLV      4009            0.0000000000
     11847      3922  TIP3      H1             30.2313764810       40.2115567438       48.4070518360  SOLV      4009            0.0000000000
     11848      3922  TIP3      H2             30.4227064810       39.9251967438       46.9328518360  SOLV      4009            0.0000000000
     11849      3923  TIP3      OH2            23.6585664810       43.6687267438       38.5287318360  SOLV      4010            0.0000000000
     11850      3923  TIP3      H1             23.1160764810       43.2891067438       37.8374918360  SOLV      4010            0.0000000000
     11851      3923  TIP3      H2             24.4920564810       43.8631967438       38.1001418360  SOLV      4010            0.0000000000
     11852      3924  TIP3      OH2            27.8229964810       43.6329167438       46.3658618360  SOLV      4011            0.0000000000
     11853      3924  TIP3      H1             28.3873364810       43.0865767438       45.8188218360  SOLV      4011            0.0000000000
     11854      3924  TIP3      H2             27.6753364810       43.1111067438       47.1546218360  SOLV      4011            0.0000000000
     11855      3925  TIP3      OH2            22.8249664810       39.7695267438       42.7843418360  SOLV      4012            0.0000000000
     11856      3925  TIP3      H1             22.5079164810       38.8670567438       42.7488818360  SOLV      4012            0.0000000000
     11857      3925  TIP3      H2             23.6063764810       39.7712667438       42.2315018360  SOLV      4012            0.0000000000
     11858      3926  TIP3      OH2            26.4495864810       42.0215267438       48.7799018360  SOLV      4013            0.0000000000
     11859      3926  TIP3      H1             25.6141164810       42.4754767438       48.8901418360  SOLV      4013            0.0000000000
     11860      3926  TIP3      H2             26.9736464810       42.2973767438       49.5318918360  SOLV      4013            0.0000000000
     11861      3927  TIP3      OH2            26.9938464810       48.2342967438       40.4645418360  SOLV      4014            0.0000000000
     11862      3927  TIP3      H1             26.2489464810       47.7268267438       40.1423318360  SOLV      4014            0.0000000000
     11863      3927  TIP3      H2             26.8595664810       48.2830967438       41.4110218360  SOLV      4014            0.0000000000
     11864      3928  TIP3      OH2            34.1437364810       47.3671167438       49.2513018360  SOLV      4015            0.0000000000
     11865      3928  TIP3      H1             34.7856164810       47.8237467438       48.7075218360  SOLV      4015            0.0000000000
     11866      3928  TIP3      H2             33.3134264810       47.4803567438       48.7887118360  SOLV      4015            0.0000000000
     11867      3929  TIP3      OH2            30.8915264810       41.0482867438       38.6638018360  SOLV      4016            0.0000000000
     11868      3929  TIP3      H1             29.9529464810       41.1598467438       38.5126818360  SOLV      4016            0.0000000000
     11869      3929  TIP3      H2             31.1887364810       41.9049767438       38.9703718360  SOLV      4016            0.0000000000
     11870      3930  TIP3      OH2            31.6098764810       42.9155567438       40.3245418360  SOLV      4017            0.0000000000
     11871      3930  TIP3      H1             32.5017764810       42.7780567438       40.6436618360  SOLV      4017            0.0000000000
     11872      3930  TIP3      H2             31.6662364810       43.7061667438       39.7878918360  SOLV      4017            0.0000000000
     11873      3931  TIP3      OH2            22.1186764810       47.5292967438       46.2343318360  SOLV      4018            0.0000000000
     11874      3931  TIP3      H1             22.8633964810       47.5268667438       45.6329818360  SOLV      4018            0.0000000000
     11875      3931  TIP3      H2             22.1963364810       46.7056767438       46.7158418360  SOLV      4018            0.0000000000
     11876      3932  TIP3      OH2            29.1192564810       49.6927267438       39.4900018360  SOLV      4019            0.0000000000
     11877      3932  TIP3      H1             28.8240964810       50.5195167438       39.8714818360  SOLV      4019            0.0000000000
     11878      3932  TIP3      H2             28.4162564810       49.0734167438       39.6861418360  SOLV      4019            0.0000000000
     11879      3933  TIP3      OH2            36.4947464810       43.1249667438       40.0192118360  SOLV      4020            0.0000000000
     11880      3933  TIP3      H1             35.9403764810       42.7287667438       39.3469618360  SOLV      4020            0.0000000000
     11881      3933  TIP3      H2             36.5951064810       44.0354867438       39.7415418360  SOLV      4020            0.0000000000
     11882      3934  TIP3      OH2            31.9503064810       46.7189567438       47.5056118360  SOLV      4021            0.0000000000
     11883      3934  TIP3      H1             31.0219964810       46.4871467438       47.4785418360  SOLV      4021            0.0000000000
     11884      3934  TIP3      H2             32.4014164810       45.9419367438       47.1754918360  SOLV      4021            0.0000000000
     11885      3935  TIP3      OH2            20.2483864810       45.9095267438       38.2257218360  SOLV      4022            0.0000000000
     11886      3935  TIP3      H1             20.8643764810       46.5362467438       38.6052018360  SOLV      4022            0.0000000000
     11887      3935  TIP3      H2             19.3866464810       46.2255067438       38.4973718360  SOLV      4022            0.0000000000
     11888      3936  TIP3      OH2            25.9208464810       48.7101067438       43.2149118360  SOLV      4023            0.0000000000
     11889      3936  TIP3      H1             25.6798464810       49.6355467438       43.2564418360  SOLV      4023            0.0000000000
     11890      3936  TIP3      H2             25.1802064810       48.2512367438       43.6113018360  SOLV      4023            0.0000000000
     11891      3937  TIP3      OH2            29.9795864810       48.9585367438       49.2305818360  SOLV      4024            0.0000000000
     11892      3937  TIP3      H1             29.5537164810       48.7307067438       50.0569818360  SOLV      4024            0.0000000000
     11893      3937  TIP3      H2             30.5601664810       48.2197167438       49.0481118360  SOLV      4024            0.0000000000
     11894      3938  TIP3      OH2            32.1824764810       49.8875867438       38.3044818360  SOLV      4025            0.0000000000
     11895      3938  TIP3      H1             32.5357864810       49.5075667438       39.1088318360  SOLV      4025            0.0000000000
     11896      3938  TIP3      H2             31.2338264810       49.7940667438       38.3914118360  SOLV      4025            0.0000000000
     11897      3939  TIP3      OH2            33.0484064810       48.5597867438       40.5312718360  SOLV      4026            0.0000000000
     11898      3939  TIP3      H1             32.7711664810       47.8317167438       41.0873818360  SOLV      4026            0.0000000000
     11899      3939  TIP3      H2             33.9757064810       48.6789867438       40.7365318360  SOLV      4026            0.0000000000
     11900      3940  TIP3      OH2            21.6634264810       47.8219067438       39.7182818360  SOLV      4027            0.0000000000
     11901      3940  TIP3      H1             20.9773564810       48.1741567438       40.2852518360  SOLV      4027            0.0000000000
     11902      3940  TIP3      H2             22.1862164810       48.5848667438       39.4717118360  SOLV      4027            0.0000000000
     11903      3941  TIP3      OH2            30.2794264810       40.1364567438       41.0944118360  SOLV      4028            0.0000000000
     11904      3941  TIP3      H1             30.4992564810       40.6079967438       40.2909518360  SOLV      4028            0.0000000000
     11905      3941  TIP3      H2             30.8378264810       40.5307167438       41.7644718360  SOLV      4028            0.0000000000
     11906      3942  TIP3      OH2            27.4794164810       41.8643367438       41.9292518360  SOLV      4029            0.0000000000
     11907      3942  TIP3      H1             28.2916764810       42.3686567438       41.9754218360  SOLV      4029            0.0000000000
     11908      3942  TIP3      H2             27.2347164810       41.7193067438       42.8432118360  SOLV      4029            0.0000000000
     11909      3943  TIP3      OH2            28.3630864810       38.9456367438       42.8673618360  SOLV      4030            0.0000000000
     11910      3943  TIP3      H1             28.0164364810       39.5626967438       43.5117918360  SOLV      4030            0.0000000000
     11911      3943  TIP3      H2             29.0217764810       39.4462067438       42.3859118360  SOLV      4030            0.0000000000
     11912      3944  TIP3      OH2            24.0207864810       40.0085767438       39.5546118360  SOLV      4031            0.0000000000
     11913      3944  TIP3      H1             23.9372664810       40.8968867438       39.9012518360  SOLV      4031            0.0000000000
     11914      3944  TIP3      H2             24.9108164810       39.7432467438       39.7862918360  SOLV      4031            0.0000000000
     11915      3945  TIP3      OH2            32.8217364810       44.5077367438       46.0446118360  SOLV      4032            0.0000000000
     11916      3945  TIP3      H1             32.0241764810       44.0927567438       45.7161118360  SOLV      4032            0.0000000000
     11917      3945  TIP3      H2             33.2668464810       43.8171067438       46.5356618360  SOLV      4032            0.0000000000
     11918      3946  TIP3      OH2            20.5952364810       43.1000967438       37.7310018360  SOLV      4033            0.0000000000
     11919      3946  TIP3      H1             20.5504964810       44.0394067438       37.9097018360  SOLV      4033            0.0000000000
     11920      3946  TIP3      H2             19.7075564810       42.8645867438       37.4612118360  SOLV      4033            0.0000000000
     11921      3947  TIP3      OH2            21.4034364810       37.8817567438       46.4041018360  SOLV      4034            0.0000000000
     11922      3947  TIP3      H1             21.1744164810       37.9410067438       45.4766018360  SOLV      4034            0.0000000000
     11923      3947  TIP3      H2             20.9607764810       37.0903067438       46.7105118360  SOLV      4034            0.0000000000
     11924      3948  TIP3      OH2            23.8704564810       48.5888167438       36.9813718360  SOLV      4035            0.0000000000
     11925      3948  TIP3      H1             23.9348664810       47.7947767438       37.5120118360  SOLV      4035            0.0000000000
     11926      3948  TIP3      H2             24.5233764810       48.4700967438       36.2915718360  SOLV      4035            0.0000000000
     11927      3949  TIP3      OH2            29.2227964810       49.6359867438       36.7171718360  SOLV      4036            0.0000000000
     11928      3949  TIP3      H1             28.9542064810       49.8161967438       37.6180618360  SOLV      4036            0.0000000000
     11929      3949  TIP3      H2             29.0163564810       48.7106067438       36.5857518360  SOLV      4036            0.0000000000
     11930      3950  TIP3      OH2            25.0198364810       46.5614367438       39.2871718360  SOLV      4037            0.0000000000
     11931      3950  TIP3      H1             24.5600364810       46.0772667438       39.9730218360  SOLV      4037            0.0000000000
     11932      3950  TIP3      H2             25.2747064810       45.8929767438       38.6512218360  SOLV      4037            0.0000000000
     11933      3951  TIP3      OH2            26.0908764810       44.8046167438       37.5494918360  SOLV      4038            0.0000000000
     11934      3951  TIP3      H1             25.9103764810       44.6497367438       36.6223218360  SOLV      4038            0.0000000000
     11935      3951  TIP3      H2             27.0409264810       44.9124867438       37.5942818360  SOLV      4038            0.0000000000
     11936      3952  TIP3      OH2            35.4807064810       47.1590367438       36.9953018360  SOLV      4039            0.0000000000
     11937      3952  TIP3      H1             35.2071864810       46.7345867438       36.1821318360  SOLV      4039            0.0000000000
     11938      3952  TIP3      H2             35.5201164810       48.0904867438       36.7783418360  SOLV      4039            0.0000000000
     11939      3953  TIP3      OH2            35.9389864810       48.0278467438       40.9703418360  SOLV      4040            0.0000000000
     11940      3953  TIP3      H1             36.7891264810       48.4489367438       41.0975018360  SOLV      4040            0.0000000000
     11941      3953  TIP3      H2             35.9444964810       47.2878567438       41.5774818360  SOLV      4040            0.0000000000
     11942      3954  TIP3      OH2            36.3335464810       46.0815867438       42.7939118360  SOLV      4041            0.0000000000
     11943      3954  TIP3      H1             35.6070064810       45.6018467438       43.1916718360  SOLV      4041            0.0000000000
     11944      3954  TIP3      H2             36.9148764810       46.2870567438       43.5260718360  SOLV      4041            0.0000000000
     11945      3955  TIP3      OH2            36.0926664810       48.8663367438       47.7416718360  SOLV      4042            0.0000000000
     11946      3955  TIP3      H1             36.9260864810       48.4883367438       47.4610318360  SOLV      4042            0.0000000000
     11947      3955  TIP3      H2             36.2046964810       49.8094567438       47.6225818360  SOLV      4042            0.0000000000
     11948      3956  TIP3      OH2            36.6018564810       45.9824367438       39.1850418360  SOLV      4043            0.0000000000
     11949      3956  TIP3      H1             36.0799664810       46.3388467438       38.4661318360  SOLV      4043            0.0000000000
     11950      3956  TIP3      H2             36.5687764810       46.6572167438       39.8631318360  SOLV      4043            0.0000000000
     11951      3957  TIP3      OH2            34.9507564810       43.2219967438       37.7357518360  SOLV      4044            0.0000000000
     11952      3957  TIP3      H1             35.0471964810       43.8886967438       37.0557218360  SOLV      4044            0.0000000000
     11953      3957  TIP3      H2             34.8107164810       42.4066267438       37.2543018360  SOLV      4044            0.0000000000
     11954      3958  TIP3      OH2            34.1202264810       44.6022367438       43.3567818360  SOLV      4045            0.0000000000
     11955      3958  TIP3      H1             33.9701064810       43.6570967438       43.3365618360  SOLV      4045            0.0000000000
     11956      3958  TIP3      H2             33.7666764810       44.8833767438       44.2006918360  SOLV      4045            0.0000000000
     11957      3959  TIP3      OH2            19.1554664810       46.6804567438       47.3671618360  SOLV      4046            0.0000000000
     11958      3959  TIP3      H1             19.3397564810       46.5986267438       46.4314518360  SOLV      4046            0.0000000000
     11959      3959  TIP3      H2             20.0047564810       46.5561567438       47.7908018360  SOLV      4046            0.0000000000
     11960      3960  TIP3      OH2            34.1981364810       40.6299767438       36.8533018360  SOLV      4047            0.0000000000
     11961      3960  TIP3      H1             34.8087164810       40.2586567438       37.4901218360  SOLV      4047            0.0000000000
     11962      3960  TIP3      H2             33.3612864810       40.2086667438       37.0493018360  SOLV      4047            0.0000000000
     11963      3961  TIP3      OH2            33.8307064810       42.1848167438       41.8192918360  SOLV      4048            0.0000000000
     11964      3961  TIP3      H1             34.1104164810       41.2778567438       41.9434618360  SOLV      4048            0.0000000000
     11965      3961  TIP3      H2             34.5898764810       42.6189667438       41.4302118360  SOLV      4048            0.0000000000
     11966      3962  TIP3      OH2            34.4425364810       42.7665567438       47.2551818360  SOLV      4049            0.0000000000
     11967      3962  TIP3      H1             35.3753364810       42.9785467438       47.2207818360  SOLV      4049            0.0000000000
     11968      3962  TIP3      H2             34.2072864810       42.8677667438       48.1774818360  SOLV      4049            0.0000000000
     11969      3963  TIP3      OH2            34.4441864810       39.4477467438       41.8674918360  SOLV      4050            0.0000000000
     11970      3963  TIP3      H1             34.6266864810       38.9988967438       42.6929918360  SOLV      4050            0.0000000000
     11971      3963  TIP3      H2             33.8444764810       38.8631867438       41.4039518360  SOLV      4050            0.0000000000
     11972      3964  TIP3      OH2            19.9741964810       40.2631167438       46.3993318360  SOLV      4051            0.0000000000
     11973      3964  TIP3      H1             20.4193564810       39.4713667438       46.7013018360  SOLV      4051            0.0000000000
     11974      3964  TIP3      H2             20.4404964810       40.9796367438       46.8298918360  SOLV      4051            0.0000000000
     11975      3965  TIP3      OH2            18.2782264810       43.2624167438       47.4683518360  SOLV      4052            0.0000000000
     11976      3965  TIP3      H1             18.7702064810       43.0414667438       46.6775518360  SOLV      4052            0.0000000000
     11977      3965  TIP3      H2             18.6403164810       44.1027567438       47.7493018360  SOLV      4052            0.0000000000
     11978      3966  TIP3      OH2            36.3108064810       39.5155567438       38.3955218360  SOLV      4053            0.0000000000
     11979      3966  TIP3      H1             36.7230664810       38.7941267438       37.9203218360  SOLV      4053            0.0000000000
     11980      3966  TIP3      H2             36.9924564810       40.1850167438       38.4539518360  SOLV      4053            0.0000000000
     11981      3967  TIP3      OH2            18.5918764810       39.5203267438       41.5225918360  SOLV      4054            0.0000000000
     11982      3967  TIP3      H1             17.6667164810       39.7289867438       41.3931418360  SOLV      4054            0.0000000000
     11983      3967  TIP3      H2             19.0458664810       40.0044067438       40.8328218360  SOLV      4054            0.0000000000
     11984      3968  TIP3      OH2            18.5554164810       38.2582267438       49.8668418360  SOLV      4055            0.0000000000
     11985      3968  TIP3      H1             17.8904664810       38.0122567438       50.5099318360  SOLV      4055            0.0000000000
     11986      3968  TIP3      H2             18.1125464810       38.8802667438       49.2896418360  SOLV      4055            0.0000000000
     11987      3969  TIP3      OH2            28.7050464810       39.1312567438       45.8756518360  SOLV      4056            0.0000000000
     11988      3969  TIP3      H1             28.0307264810       38.5018167438       46.1312318360  SOLV      4056            0.0000000000
     11989      3969  TIP3      H2             29.2689664810       38.6471467438       45.2724418360  SOLV      4056            0.0000000000
     11990      3970  TIP3      OH2            33.8477664810       37.2386567438       45.9883618360  SOLV      4057            0.0000000000
     11991      3970  TIP3      H1             34.4515264810       37.7861967438       45.4864618360  SOLV      4057            0.0000000000
     11992      3970  TIP3      H2             32.9779664810       37.5576967438       45.7477718360  SOLV      4057            0.0000000000
     11993      3971  TIP3      OH2            35.5748064810       38.3775267438       44.3214518360  SOLV      4058            0.0000000000
     11994      3971  TIP3      H1             36.1865564810       37.8630967438       43.7948118360  SOLV      4058            0.0000000000
     11995      3971  TIP3      H2             35.9571464810       39.2547367438       44.3448918360  SOLV      4058            0.0000000000
     11996      3972  TIP3      OH2            21.0317964810       37.7652867438       43.6976418360  SOLV      4059            0.0000000000
     11997      3972  TIP3      H1             20.2547764810       37.5307767438       43.1902318360  SOLV      4059            0.0000000000
     11998      3972  TIP3      H2             21.5621564810       36.9684967438       43.7064418360  SOLV      4059            0.0000000000
     11999      3973  TIP3      OH2            19.8681364810       37.5630967438       39.5012518360  SOLV      4060            0.0000000000
     12000      3973  TIP3      H1             20.3072064810       38.1741467438       38.9096018360  SOLV      4060            0.0000000000
     12001      3973  TIP3      H2             19.2343764810       38.1015067438       39.9752518360  SOLV      4060            0.0000000000
     12002      3974  TIP3      OH2            25.6110564810       37.6919967438       43.5109518360  SOLV      4061            0.0000000000
     12003      3974  TIP3      H1             26.4853964810       38.0804267438       43.4813818360  SOLV      4061            0.0000000000
     12004      3974  TIP3      H2             25.4751364810       37.4767767438       44.4336718360  SOLV      4061            0.0000000000
     12005      3975  TIP3      OH2            31.1678964810       37.7219767438       45.1601218360  SOLV      4062            0.0000000000
     12006      3975  TIP3      H1             31.2440564810       37.8171367438       44.2107218360  SOLV      4062            0.0000000000
     12007      3975  TIP3      H2             30.8928164810       36.8142667438       45.2890318360  SOLV      4062            0.0000000000
     12008      3976  TIP3      OH2            32.5211564810       37.7477567438       40.8526218360  SOLV      4063            0.0000000000
     12009      3976  TIP3      H1             31.8182664810       38.3626767438       40.6427618360  SOLV      4063            0.0000000000
     12010      3976  TIP3      H2             32.0762964810       36.9104267438       40.9837118360  SOLV      4063            0.0000000000
     12011      3977  TIP3      OH2            21.7290464810       39.4792467438       37.9436618360  SOLV      4064            0.0000000000
     12012      3977  TIP3      H1             22.2203864810       38.8494867438       37.4162118360  SOLV      4064            0.0000000000
     12013      3977  TIP3      H2             22.3526764810       39.7751867438       38.6067818360  SOLV      4064            0.0000000000
     12014      3978  TIP3      OH2            26.7550564810       39.7723967438       40.4007118360  SOLV      4065            0.0000000000
     12015      3978  TIP3      H1             26.9331864810       39.1257167438       41.0835718360  SOLV      4065            0.0000000000
     12016      3978  TIP3      H2             26.7016764810       40.6061667438       40.8678218360  SOLV      4065            0.0000000000
     12017      3979  TIP3      OH2            39.9116864810       45.7907967438       48.6682018360  SOLV      4068            0.0000000000
     12018      3979  TIP3      H1             39.9528964810       45.1651267438       49.3914418360  SOLV      4068            0.0000000000
     12019      3979  TIP3      H2             40.6144564810       46.4146567438       48.8502418360  SOLV      4068            0.0000000000
     12020      3980  TIP3      OH2            37.4450464810       43.9009467438       42.5959918360  SOLV      4069            0.0000000000
     12021      3980  TIP3      H1             36.9973864810       44.7468167438       42.5776418360  SOLV      4069            0.0000000000
     12022      3980  TIP3      H2             36.8841664810       43.3213667438       42.0805018360  SOLV      4069            0.0000000000
     12023      3981  TIP3      OH2            38.1556564810       46.0629067438       44.7217918360  SOLV      4070            0.0000000000
     12024      3981  TIP3      H1             38.3690064810       45.2930667438       45.2490918360  SOLV      4070            0.0000000000
     12025      3981  TIP3      H2             38.8934164810       46.1525767438       44.1185518360  SOLV      4070            0.0000000000
     12026      3982  TIP3      OH2            49.0733264810       43.0029667438       47.8087918360  SOLV      4072            0.0000000000
     12027      3982  TIP3      H1             49.2159164810       42.0566667438       47.8289518360  SOLV      4072            0.0000000000
     12028      3982  TIP3      H2             48.9672264810       43.2099467438       46.8802818360  SOLV      4072            0.0000000000
     12029      3983  TIP3      OH2            42.2281564810       41.1046067438       45.0812718360  SOLV      4073            0.0000000000
     12030      3983  TIP3      H1             42.2712664810       41.9644567438       44.6629018360  SOLV      4073            0.0000000000
     12031      3983  TIP3      H2             41.7705664810       40.5520767438       44.4475918360  SOLV      4073            0.0000000000
     12032      3984  TIP3      OH2            38.8483064810       43.5011867438       45.8434118360  SOLV      4074            0.0000000000
     12033      3984  TIP3      H1             39.5019664810       42.9513567438       46.2754218360  SOLV      4074            0.0000000000
     12034      3984  TIP3      H2             38.8722364810       43.2270867438       44.9266118360  SOLV      4074            0.0000000000
     12035      3985  TIP3      OH2            44.0047564810       45.0513167438       45.0585618360  SOLV      4075            0.0000000000
     12036      3985  TIP3      H1             44.6208564810       44.5248567438       45.5679618360  SOLV      4075            0.0000000000
     12037      3985  TIP3      H2             43.4186364810       44.4111867438       44.6549218360  SOLV      4075            0.0000000000
     12038      3986  TIP3      OH2            41.0383464810       40.0224467438       49.1553518360  SOLV      4076            0.0000000000
     12039      3986  TIP3      H1             40.8195164810       40.5525067438       48.3889518360  SOLV      4076            0.0000000000
     12040      3986  TIP3      H2             40.3704364810       40.2489967438       49.8024918360  SOLV      4076            0.0000000000
     12041      3987  TIP3      OH2            43.6074864810       47.6980167438       49.4427218360  SOLV      4078            0.0000000000
     12042      3987  TIP3      H1             42.8673964810       48.2961667438       49.5462418360  SOLV      4078            0.0000000000
     12043      3987  TIP3      H2             44.3214364810       48.2519767438       49.1270818360  SOLV      4078            0.0000000000
     12044      3988  TIP3      OH2            40.6320764810       41.9146267438       47.1075718360  SOLV      4079            0.0000000000
     12045      3988  TIP3      H1             41.2457064810       42.5473867438       47.4808118360  SOLV      4079            0.0000000000
     12046      3988  TIP3      H2             41.1441464810       41.4421267438       46.4512618360  SOLV      4079            0.0000000000
     12047      3989  TIP3      OH2            38.1360064810       49.3331067438       41.0118018360  SOLV      4080            0.0000000000
     12048      3989  TIP3      H1             37.8640964810       49.5622067438       40.1230918360  SOLV      4080            0.0000000000
     12049      3989  TIP3      H2             38.1815764810       50.1709867438       41.4723318360  SOLV      4080            0.0000000000
     12050      3990  TIP3      OH2            45.0648164810       37.3279567438       46.6078418360  SOLV      4081            0.0000000000
     12051      3990  TIP3      H1             44.9472364810       36.3795567438       46.5536718360  SOLV      4081            0.0000000000
     12052      3990  TIP3      H2             44.2098264810       37.6605667438       46.8809518360  SOLV      4081            0.0000000000
     12053      3991  TIP3      OH2            47.3313064810       46.1655167438       41.1084218360  SOLV      4082            0.0000000000
     12054      3991  TIP3      H1             46.6198564810       46.7004867438       40.7564718360  SOLV      4082            0.0000000000
     12055      3991  TIP3      H2             48.0222664810       46.2207267438       40.4483118360  SOLV      4082            0.0000000000
     12056      3992  TIP3      OH2            47.3852264810       44.6229467438       38.1469218360  SOLV      4083            0.0000000000
     12057      3992  TIP3      H1             48.0862164810       44.6456367438       38.7983218360  SOLV      4083            0.0000000000
     12058      3992  TIP3      H2             47.6875164810       43.9949167438       37.4908518360  SOLV      4083            0.0000000000
     12059      3993  TIP3      OH2            42.3824464810       47.0054667438       43.9425118360  SOLV      4084            0.0000000000
     12060      3993  TIP3      H1             42.0519664810       46.6348067438       43.1242118360  SOLV      4084            0.0000000000
     12061      3993  TIP3      H2             42.9708564810       46.3348667438       44.2893418360  SOLV      4084            0.0000000000
     12062      3994  TIP3      OH2            42.7489964810       45.7740267438       47.5760118360  SOLV      4085            0.0000000000
     12063      3994  TIP3      H1             43.3142464810       45.8954467438       46.8131318360  SOLV      4085            0.0000000000
     12064      3994  TIP3      H2             43.0678864810       46.4115267438       48.2148618360  SOLV      4085            0.0000000000
     12065      3995  TIP3      OH2            49.6080264810       45.5371367438       39.7451318360  SOLV      4086            0.0000000000
     12066      3995  TIP3      H1             50.1875764810       45.6871667438       40.4920218360  SOLV      4086            0.0000000000
     12067      3995  TIP3      H2             50.0220264810       46.0078767438       39.0217718360  SOLV      4086            0.0000000000
     12068      3996  TIP3      OH2            41.3727164810       46.0748967438       41.5317918360  SOLV      4087            0.0000000000
     12069      3996  TIP3      H1             41.0808464810       46.8430667438       41.0409218360  SOLV      4087            0.0000000000
     12070      3996  TIP3      H2             40.6982364810       45.4155167438       41.3689318360  SOLV      4087            0.0000000000
     12071      3997  TIP3      OH2            42.3335764810       38.2314067438       47.3854718360  SOLV      4088            0.0000000000
     12072      3997  TIP3      H1             41.4719464810       38.1442267438       46.9777618360  SOLV      4088            0.0000000000
     12073      3997  TIP3      H2             42.3111464810       39.0874167438       47.8132318360  SOLV      4088            0.0000000000
     12074      3998  TIP3      OH2            46.6580864810       40.4457867438       38.0452518360  SOLV      4089            0.0000000000
     12075      3998  TIP3      H1             46.4045664810       40.4649467438       38.9680618360  SOLV      4089            0.0000000000
     12076      3998  TIP3      H2             46.4012964810       39.5743267438       37.7438718360  SOLV      4089            0.0000000000
     12077      3999  TIP3      OH2            42.4245864810       43.1968567438       48.4804918360  SOLV      4090            0.0000000000
     12078      3999  TIP3      H1             41.7827964810       43.1565867438       49.1895018360  SOLV      4090            0.0000000000
     12079      3999  TIP3      H2             42.4617864810       44.1233267438       48.2427918360  SOLV      4090            0.0000000000
     12080      4000  TIP3      OH2            42.4214964810       43.4178667438       43.3924918360  SOLV      4091            0.0000000000
     12081      4000  TIP3      H1             41.5287864810       43.0774767438       43.3338718360  SOLV      4091            0.0000000000
     12082      4000  TIP3      H2             42.8721564810       43.0409567438       42.6368118360  SOLV      4091            0.0000000000
     12083      4001  TIP3      OH2            47.9570464810       43.8338967438       42.2095718360  SOLV      4092            0.0000000000
     12084      4001  TIP3      H1             47.5480764810       44.6487567438       41.9180518360  SOLV      4092            0.0000000000
     12085      4001  TIP3      H2             48.6776664810       43.6939067438       41.5952818360  SOLV      4092            0.0000000000
     12086      4002  TIP3      OH2            48.9618164810       43.2799367438       45.0235418360  SOLV      4093            0.0000000000
     12087      4002  TIP3      H1             48.7662664810       43.8856167438       44.3086018360  SOLV      4093            0.0000000000
     12088      4002  TIP3      H2             49.1430764810       42.4464567438       44.5891718360  SOLV      4093            0.0000000000
     12089      4003  TIP3      OH2            43.5403764810       40.8914367438       37.1462918360  SOLV      4094            0.0000000000
     12090      4003  TIP3      H1             43.1094464810       40.4464467438       37.8760318360  SOLV      4094            0.0000000000
     12091      4003  TIP3      H2             42.8222464810       41.2630667438       36.6340418360  SOLV      4094            0.0000000000
     12092      4004  TIP3      OH2            36.7827164810       40.6333867438       44.1981618360  SOLV      4095            0.0000000000
     12093      4004  TIP3      H1             37.4134864810       40.6045967438       44.9175518360  SOLV      4095            0.0000000000
     12094      4004  TIP3      H2             37.2321464810       40.2082567438       43.4677518360  SOLV      4095            0.0000000000
     12095      4005  TIP3      OH2            38.0569264810       41.3795867438       39.6222018360  SOLV      4096            0.0000000000
     12096      4005  TIP3      H1             38.5310964810       41.9705767438       39.0372918360  SOLV      4096            0.0000000000
     12097      4005  TIP3      H2             37.3395664810       41.9098767438       39.9692118360  SOLV      4096            0.0000000000
     12098      4006  TIP3      OH2            48.2257364810       44.9180667438       49.6947818360  SOLV      4097            0.0000000000
     12099      4006  TIP3      H1             48.5492164810       44.2870367438       49.0518318360  SOLV      4097            0.0000000000
     12100      4006  TIP3      H2             47.7856664810       44.3832867438       50.3555218360  SOLV      4097            0.0000000000
     12101      4007  TIP3      OH2            45.0030264810       40.8456167438       44.4789018360  SOLV      4098            0.0000000000
     12102      4007  TIP3      H1             44.0921364810       40.9022967438       44.7675018360  SOLV      4098            0.0000000000
     12103      4007  TIP3      H2             45.5083164810       40.7851667438       45.2896218360  SOLV      4098            0.0000000000
     12104      4008  TIP3      OH2            39.8313664810       42.4742467438       43.3056618360  SOLV      4099            0.0000000000
     12105      4008  TIP3      H1             38.9421664810       42.5737967438       42.9656218360  SOLV      4099            0.0000000000
     12106      4008  TIP3      H2             40.1278564810       41.6325467438       42.9594518360  SOLV      4099            0.0000000000
     12107      4009  TIP3      OH2            43.4845464810       42.4745067438       40.9621218360  SOLV      4100            0.0000000000
     12108      4009  TIP3      H1             44.4160964810       42.6035067438       41.1404318360  SOLV      4100            0.0000000000
     12109      4009  TIP3      H2             43.2695764810       43.1439367438       40.3125918360  SOLV      4100            0.0000000000
     12110      4010  TIP3      OH2            49.4082164810       40.0802467438       47.7430818360  SOLV      4101            0.0000000000
     12111      4010  TIP3      H1             48.7313764810       40.2115567438       48.4070518360  SOLV      4101            0.0000000000
     12112      4010  TIP3      H2             48.9227064810       39.9251967438       46.9328518360  SOLV      4101            0.0000000000
     12113      4011  TIP3      OH2            42.1585664810       43.6687267438       38.5287318360  SOLV      4102            0.0000000000
     12114      4011  TIP3      H1             41.6160764810       43.2891067438       37.8374918360  SOLV      4102            0.0000000000
     12115      4011  TIP3      H2             42.9920564810       43.8631967438       38.1001418360  SOLV      4102            0.0000000000
     12116      4012  TIP3      OH2            46.3229964810       43.6329167438       46.3658618360  SOLV      4103            0.0000000000
     12117      4012  TIP3      H1             46.8873364810       43.0865767438       45.8188218360  SOLV      4103            0.0000000000
     12118      4012  TIP3      H2             46.1753364810       43.1111067438       47.1546218360  SOLV      4103            0.0000000000
     12119      4013  TIP3      OH2            41.3249664810       39.7695267438       42.7843418360  SOLV      4104            0.0000000000
     12120      4013  TIP3      H1             41.0079164810       38.8670567438       42.7488818360  SOLV      4104            0.0000000000
     12121      4013  TIP3      H2             42.1063764810       39.7712667438       42.2315018360  SOLV      4104            0.0000000000
     12122      4014  TIP3      OH2            44.9495864810       42.0215267438       48.7799018360  SOLV      4105            0.0000000000
     12123      4014  TIP3      H1             44.1141164810       42.4754767438       48.8901418360  SOLV      4105            0.0000000000
     12124      4014  TIP3      H2             45.4736464810       42.2973767438       49.5318918360  SOLV      4105            0.0000000000
     12125      4015  TIP3      OH2            45.4938464810       48.2342967438       40.4645418360  SOLV      4106            0.0000000000
     12126      4015  TIP3      H1             44.7489464810       47.7268267438       40.1423318360  SOLV      4106            0.0000000000
     12127      4015  TIP3      H2             45.3595664810       48.2830967438       41.4110218360  SOLV      4106            0.0000000000
     12128      4016  TIP3      OH2            49.3915264810       41.0482867438       38.6638018360  SOLV      4107            0.0000000000
     12129      4016  TIP3      H1             48.4529464810       41.1598467438       38.5126818360  SOLV      4107            0.0000000000
     12130      4016  TIP3      H2             49.6887364810       41.9049767438       38.9703718360  SOLV      4107            0.0000000000
     12131      4017  TIP3      OH2            40.6186764810       47.5292967438       46.2343318360  SOLV      4108            0.0000000000
     12132      4017  TIP3      H1             41.3633964810       47.5268667438       45.6329818360  SOLV      4108            0.0000000000
     12133      4017  TIP3      H2             40.6963364810       46.7056767438       46.7158418360  SOLV      4108            0.0000000000
     12134      4018  TIP3      OH2            47.6192564810       49.6927267438       39.4900018360  SOLV      4109            0.0000000000
     12135      4018  TIP3      H1             47.3240964810       50.5195167438       39.8714818360  SOLV      4109            0.0000000000
     12136      4018  TIP3      H2             46.9162564810       49.0734167438       39.6861418360  SOLV      4109            0.0000000000
     12137      4019  TIP3      OH2            38.7483864810       45.9095267438       38.2257218360  SOLV      4110            0.0000000000
     12138      4019  TIP3      H1             39.3643764810       46.5362467438       38.6052018360  SOLV      4110            0.0000000000
     12139      4019  TIP3      H2             37.8866464810       46.2255067438       38.4973718360  SOLV      4110            0.0000000000
     12140      4020  TIP3      OH2            40.1634264810       47.8219067438       39.7182818360  SOLV      4113            0.0000000000
     12141      4020  TIP3      H1             39.4773564810       48.1741567438       40.2852518360  SOLV      4113            0.0000000000
     12142      4020  TIP3      H2             40.6862164810       48.5848667438       39.4717118360  SOLV      4113            0.0000000000
     12143      4021  TIP3      OH2            48.7794264810       40.1364567438       41.0944118360  SOLV      4114            0.0000000000
     12144      4021  TIP3      H1             48.9992564810       40.6079967438       40.2909518360  SOLV      4114            0.0000000000
     12145      4021  TIP3      H2             49.3378264810       40.5307167438       41.7644718360  SOLV      4114            0.0000000000
     12146      4022  TIP3      OH2            45.9794164810       41.8643367438       41.9292518360  SOLV      4115            0.0000000000
     12147      4022  TIP3      H1             46.7916764810       42.3686567438       41.9754218360  SOLV      4115            0.0000000000
     12148      4022  TIP3      H2             45.7347164810       41.7193067438       42.8432118360  SOLV      4115            0.0000000000
     12149      4023  TIP3      OH2            46.8630864810       38.9456367438       42.8673618360  SOLV      4116            0.0000000000
     12150      4023  TIP3      H1             46.5164364810       39.5626967438       43.5117918360  SOLV      4116            0.0000000000
     12151      4023  TIP3      H2             47.5217764810       39.4462067438       42.3859118360  SOLV      4116            0.0000000000
     12152      4024  TIP3      OH2            42.5207864810       40.0085767438       39.5546118360  SOLV      4117            0.0000000000
     12153      4024  TIP3      H1             42.4372664810       40.8968867438       39.9012518360  SOLV      4117            0.0000000000
     12154      4024  TIP3      H2             43.4108164810       39.7432467438       39.7862918360  SOLV      4117            0.0000000000
     12155      4025  TIP3      OH2            39.0952364810       43.1000967438       37.7310018360  SOLV      4118            0.0000000000
     12156      4025  TIP3      H1             39.0504964810       44.0394067438       37.9097018360  SOLV      4118            0.0000000000
     12157      4025  TIP3      H2             38.2075564810       42.8645867438       37.4612118360  SOLV      4118            0.0000000000
     12158      4026  TIP3      OH2            39.9034364810       37.8817567438       46.4041018360  SOLV      4119            0.0000000000
     12159      4026  TIP3      H1             39.6744164810       37.9410067438       45.4766018360  SOLV      4119            0.0000000000
     12160      4026  TIP3      H2             39.4607764810       37.0903067438       46.7105118360  SOLV      4119            0.0000000000
     12161      4027  TIP3      OH2            42.3704564810       48.5888167438       36.9813718360  SOLV      4120            0.0000000000
     12162      4027  TIP3      H1             42.4348664810       47.7947767438       37.5120118360  SOLV      4120            0.0000000000
     12163      4027  TIP3      H2             43.0233764810       48.4700967438       36.2915718360  SOLV      4120            0.0000000000
     12164      4028  TIP3      OH2            47.7227964810       49.6359867438       36.7171718360  SOLV      4121            0.0000000000
     12165      4028  TIP3      H1             47.4542064810       49.8161967438       37.6180618360  SOLV      4121            0.0000000000
     12166      4028  TIP3      H2             47.5163564810       48.7106067438       36.5857518360  SOLV      4121            0.0000000000
     12167      4029  TIP3      OH2            43.5198364810       46.5614367438       39.2871718360  SOLV      4122            0.0000000000
     12168      4029  TIP3      H1             43.0600364810       46.0772667438       39.9730218360  SOLV      4122            0.0000000000
     12169      4029  TIP3      H2             43.7747064810       45.8929767438       38.6512218360  SOLV      4122            0.0000000000
     12170      4030  TIP3      OH2            44.5908764810       44.8046167438       37.5494918360  SOLV      4123            0.0000000000
     12171      4030  TIP3      H1             44.4103764810       44.6497367438       36.6223218360  SOLV      4123            0.0000000000
     12172      4030  TIP3      H2             45.5409264810       44.9124867438       37.5942818360  SOLV      4123            0.0000000000
     12173      4031  TIP3      OH2            37.6554664810       46.6804567438       47.3671618360  SOLV      4124            0.0000000000
     12174      4031  TIP3      H1             37.8397564810       46.5986267438       46.4314518360  SOLV      4124            0.0000000000
     12175      4031  TIP3      H2             38.5047564810       46.5561567438       47.7908018360  SOLV      4124            0.0000000000
     12176      4032  TIP3      OH2            38.4741964810       40.2631167438       46.3993318360  SOLV      4125            0.0000000000
     12177      4032  TIP3      H1             38.9193564810       39.4713667438       46.7013018360  SOLV      4125            0.0000000000
     12178      4032  TIP3      H2             38.9404964810       40.9796367438       46.8298918360  SOLV      4125            0.0000000000
     12179      4033  TIP3      OH2            36.7782264810       43.2624167438       47.4683518360  SOLV      4126            0.0000000000
     12180      4033  TIP3      H1             37.2702064810       43.0414667438       46.6775518360  SOLV      4126            0.0000000000
     12181      4033  TIP3      H2             37.1403164810       44.1027567438       47.7493018360  SOLV      4126            0.0000000000
     12182      4034  TIP3      OH2            37.0918764810       39.5203267438       41.5225918360  SOLV      4127            0.0000000000
     12183      4034  TIP3      H1             36.1667164810       39.7289867438       41.3931418360  SOLV      4127            0.0000000000
     12184      4034  TIP3      H2             37.5458664810       40.0044067438       40.8328218360  SOLV      4127            0.0000000000
     12185      4035  TIP3      OH2            37.0554164810       38.2582267438       49.8668418360  SOLV      4128            0.0000000000
     12186      4035  TIP3      H1             36.3904664810       38.0122567438       50.5099318360  SOLV      4128            0.0000000000
     12187      4035  TIP3      H2             36.6125464810       38.8802667438       49.2896418360  SOLV      4128            0.0000000000
     12188      4036  TIP3      OH2            47.2050464810       39.1312567438       45.8756518360  SOLV      4129            0.0000000000
     12189      4036  TIP3      H1             46.5307264810       38.5018167438       46.1312318360  SOLV      4129            0.0000000000
     12190      4036  TIP3      H2             47.7689664810       38.6471467438       45.2724418360  SOLV      4129            0.0000000000
     12191      4037  TIP3      OH2            39.5317964810       37.7652867438       43.6976418360  SOLV      4130            0.0000000000
     12192      4037  TIP3      H1             38.7547764810       37.5307767438       43.1902318360  SOLV      4130            0.0000000000
     12193      4037  TIP3      H2             40.0621564810       36.9684967438       43.7064418360  SOLV      4130            0.0000000000
     12194      4038  TIP3      OH2            38.3681364810       37.5630967438       39.5012518360  SOLV      4131            0.0000000000
     12195      4038  TIP3      H1             38.8072064810       38.1741467438       38.9096018360  SOLV      4131            0.0000000000
     12196      4038  TIP3      H2             37.7343764810       38.1015067438       39.9752518360  SOLV      4131            0.0000000000
     12197      4039  TIP3      OH2            44.1110564810       37.6919967438       43.5109518360  SOLV      4132            0.0000000000
     12198      4039  TIP3      H1             44.9853964810       38.0804267438       43.4813818360  SOLV      4132            0.0000000000
     12199      4039  TIP3      H2             43.9751364810       37.4767767438       44.4336718360  SOLV      4132            0.0000000000
     12200      4040  TIP3      OH2            49.6678964810       37.7219767438       45.1601218360  SOLV      4133            0.0000000000
     12201      4040  TIP3      H1             49.7440564810       37.8171367438       44.2107218360  SOLV      4133            0.0000000000
     12202      4040  TIP3      H2             49.3928164810       36.8142667438       45.2890318360  SOLV      4133            0.0000000000
     12203      4041  TIP3      OH2            40.2290464810       39.4792467438       37.9436618360  SOLV      4134            0.0000000000
     12204      4041  TIP3      H1             40.7203864810       38.8494867438       37.4162118360  SOLV      4134            0.0000000000
     12205      4041  TIP3      H2             40.8526764810       39.7751867438       38.6067818360  SOLV      4134            0.0000000000
     12206      4042  TIP3      OH2            45.2550564810       39.7723967438       40.4007118360  SOLV      4135            0.0000000000
     12207      4042  TIP3      H1             45.4331864810       39.1257167438       41.0835718360  SOLV      4135            0.0000000000
     12208      4042  TIP3      H2             45.2016764810       40.6061667438       40.8678218360  SOLV      4135            0.0000000000
