; PSBMA20 CG topology — parameter-free (agent-edited mapping)
; bond b0/kb are group tags only; negative b0 = agent-created bond
[ moleculetype ]
PSBMA20   1

[ atoms ]
;  nr  type  resnr  residue  atom  cgnr  charge  mass
     1      SC1      1  LIG     C01      1    0.000    54.00
     2     TN5a      1  LIG     N01      2    0.000    36.00
     3     TP2a      1  LIG     P01      3    0.000    44.05
     4       Q1      1  LIG     101      4    1.000    58.10
     5      SC1      1  LIG     C02      5    0.000    28.05
     6       Q1      1  LIG     102      6   -1.000    72.00
     7      SC1      2  LIG     C01      7    0.000    54.00
     8     TN5a      2  LIG     N01      8    0.000    36.00
     9     TP2a      2  LIG     P01      9    0.000    44.05
    10       Q1      2  LIG     101     10    1.000    58.10
    11      SC1      2  LIG     C02     11    0.000    28.05
    12       Q1      2  LIG     102     12   -1.000    72.00
    13      SC1      3  LIG     C01     13    0.000    54.00
    14     TN5a      3  LIG     N01     14    0.000    36.00
    15     TP2a      3  LIG     P01     15    0.000    44.05
    16       Q1      3  LIG     101     16    1.000    58.10
    17      SC1      3  LIG     C02     17    0.000    28.05
    18       Q1      3  LIG     102     18   -1.000    72.00
    19      SC1      4  LIG     C01     19    0.000    54.00
    20     TN5a      4  LIG     N01     20    0.000    36.00
    21     TP2a      4  LIG     P01     21    0.000    44.05
    22       Q1      4  LIG     101     22    1.000    58.10
    23      SC1      4  LIG     C02     23    0.000    28.05
    24       Q1      4  LIG     102     24   -1.000    72.00
    25      SC1      5  LIG     C01     25    0.000    54.00
    26     TN5a      5  LIG     N01     26    0.000    36.00
    27     TP2a      5  LIG     P01     27    0.000    44.05
    28       Q1      5  LIG     101     28    1.000    58.10
    29      SC1      5  LIG     C02     29    0.000    28.05
    30       Q1      5  LIG     102     30   -1.000    72.00
    31      SC1      6  LIG     C01     31    0.000    54.00
    32     TN5a      6  LIG     N01     32    0.000    36.00
    33     TP2a      6  LIG     P01     33    0.000    44.05
    34       Q1      6  LIG     101     34    1.000    58.10
    35      SC1      6  LIG     C02     35    0.000    28.05
    36       Q1      6  LIG     102     36   -1.000    72.00
    37      SC1      7  LIG     C01     37    0.000    54.00
    38     TN5a      7  LIG     N01     38    0.000    36.00
    39     TP2a      7  LIG     P01     39    0.000    44.05
    40       Q1      7  LIG     101     40    1.000    58.10
    41      SC1      7  LIG     C02     41    0.000    28.05
    42       Q1      7  LIG     102     42   -1.000    72.00
    43      SC1      8  LIG     C01     43    0.000    54.00
    44     TN5a      8  LIG     N01     44    0.000    36.00
    45     TP2a      8  LIG     P01     45    0.000    44.05
    46       Q1      8  LIG     101     46    1.000    58.10
    47      SC1      8  LIG     C02     47    0.000    28.05
    48       Q1      8  LIG     102     48   -1.000    72.00
    49      SC1      9  LIG     C01     49    0.000    54.00
    50     TN5a      9  LIG     N01     50    0.000    36.00
    51     TP2a      9  LIG     P01     51    0.000    44.05
    52       Q1      9  LIG     101     52    1.000    58.10
    53      SC1      9  LIG     C02     53    0.000    28.05
    54       Q1      9  LIG     102     54   -1.000    72.00
    55      SC1     10  LIG     C01     55    0.000    54.00
    56     TN5a     10  LIG     N01     56    0.000    36.00
    57     TP2a     10  LIG     P01     57    0.000    44.05
    58       Q1     10  LIG     101     58    1.000    58.10
    59      SC1     10  LIG     C02     59    0.000    28.05
    60       Q1     10  LIG     102     60   -1.000    72.00
    61      SC1     11  LIG     C01     61    0.000    54.00
    62     TN5a     11  LIG     N01     62    0.000    36.00
    63     TP2a     11  LIG     P01     63    0.000    44.05
    64       Q1     11  LIG     101     64    1.000    58.10
    65      SC1     11  LIG     C02     65    0.000    28.05
    66       Q1     11  LIG     102     66   -1.000    72.00
    67      SC1     12  LIG     C01     67    0.000    54.00
    68     TN5a     12  LIG     N01     68    0.000    36.00
    69     TP2a     12  LIG     P01     69    0.000    44.05
    70       Q1     12  LIG     101     70    1.000    58.10
    71      SC1     12  LIG     C02     71    0.000    28.05
    72       Q1     12  LIG     102     72   -1.000    72.00
    73      SC1     13  LIG     C01     73    0.000    54.00
    74     TN5a     13  LIG     N01     74    0.000    36.00
    75     TP2a     13  LIG     P01     75    0.000    44.05
    76       Q1     13  LIG     101     76    1.000    58.10
    77      SC1     13  LIG     C02     77    0.000    28.05
    78       Q1     13  LIG     102     78   -1.000    72.00
    79      SC1     14  LIG     C01     79    0.000    54.00
    80     TN5a     14  LIG     N01     80    0.000    36.00
    81     TP2a     14  LIG     P01     81    0.000    44.05
    82       Q1     14  LIG     101     82    1.000    58.10
    83      SC1     14  LIG     C02     83    0.000    28.05
    84       Q1     14  LIG     102     84   -1.000    72.00
    85      SC1     15  LIG     C01     85    0.000    54.00
    86     TN5a     15  LIG     N01     86    0.000    36.00
    87     TP2a     15  LIG     P01     87    0.000    44.05
    88       Q1     15  LIG     101     88    1.000    58.10
    89      SC1     15  LIG     C02     89    0.000    28.05
    90       Q1     15  LIG     102     90   -1.000    72.00
    91      SC1     16  LIG     C01     91    0.000    54.00
    92     TN5a     16  LIG     N01     92    0.000    36.00
    93     TP2a     16  LIG     P01     93    0.000    44.05
    94       Q1     16  LIG     101     94    1.000    58.10
    95      SC1     16  LIG     C02     95    0.000    28.05
    96       Q1     16  LIG     102     96   -1.000    72.00
    97      SC1     17  LIG     C01     97    0.000    54.00
    98     TN5a     17  LIG     N01     98    0.000    36.00
    99     TP2a     17  LIG     P01     99    0.000    44.05
   100       Q1     17  LIG     101    100    1.000    58.10
   101      SC1     17  LIG     C02    101    0.000    28.05
   102       Q1     17  LIG     102    102   -1.000    72.00
   103      SC1     18  LIG     C01    103    0.000    54.00
   104     TN5a     18  LIG     N01    104    0.000    36.00
   105     TP2a     18  LIG     P01    105    0.000    44.05
   106       Q1     18  LIG     101    106    1.000    58.10
   107      SC1     18  LIG     C02    107    0.000    28.05
   108       Q1     18  LIG     102    108   -1.000    72.00
   109      SC1     19  LIG     C01    109    0.000    54.00
   110     TN5a     19  LIG     N01    110    0.000    36.00
   111     TP2a     19  LIG     P01    111    0.000    44.05
   112       Q1     19  LIG     101    112    1.000    58.10
   113      SC1     19  LIG     C02    113    0.000    28.05
   114       Q1     19  LIG     102    114   -1.000    72.00
   115      SC1     20  LIG     C01    115    0.000    54.00
   116     TN5a     20  LIG     N01    116    0.000    36.00
   117     TP2a     20  LIG     P01    117    0.000    44.05
   118       Q1     20  LIG     101    118    1.000    58.10
   119      SC1     20  LIG     C02    119    0.000    28.05
   120       Q1     20  LIG     102    120   -1.000    72.00

[ bonds ]
;   i    j  func    b0        kb
     1     2    1    0.2400   100000.00
     1     7    1    0.2700     7500.00
     2     3    1    0.2400    25000.00
     3     4    1    0.3100     5000.00
     4     5    1    0.3300     7000.00
     5     6    1    0.2600     7000.00
     7     8    1    0.2400   100000.00
     7    13    1    0.2700     7500.00
     8     9    1    0.2400    25000.00
     9    10    1    0.3100     5000.00
    10    11    1    0.3300     7000.00
    11    12    1    0.2600     7000.00
    13    14    1    0.2400   100000.00
    13    19    1    0.2700     7500.00
    14    15    1    0.2400    25000.00
    15    16    1    0.3100     5000.00
    16    17    1    0.3300     7000.00
    17    18    1    0.2600     7000.00
    19    20    1    0.2400   100000.00
    19    25    1    0.2700     7500.00
    20    21    1    0.2400    25000.00
    21    22    1    0.3100     5000.00
    22    23    1    0.3300     7000.00
    23    24    1    0.2600     7000.00
    25    26    1    0.2400   100000.00
    25    31    1    0.2700     7500.00
    26    27    1    0.2400    25000.00
    27    28    1    0.3100     5000.00
    28    29    1    0.3300     7000.00
    29    30    1    0.2600     7000.00
    31    32    1    0.2400   100000.00
    31    37    1    0.2700     7500.00
    32    33    1    0.2400    25000.00
    33    34    1    0.3100     5000.00
    34    35    1    0.3300     7000.00
    35    36    1    0.2600     7000.00
    37    38    1    0.2400   100000.00
    37    43    1    0.2700     7500.00
    38    39    1    0.2400    25000.00
    39    40    1    0.3100     5000.00
    40    41    1    0.3300     7000.00
    41    42    1    0.2600     7000.00
    43    44    1    0.2400   100000.00
    43    49    1    0.2700     7500.00
    44    45    1    0.2400    25000.00
    45    46    1    0.3100     5000.00
    46    47    1    0.3300     7000.00
    47    48    1    0.2600     7000.00
    49    50    1    0.2400   100000.00
    49    55    1    0.2700     7500.00
    50    51    1    0.2400    25000.00
    51    52    1    0.3100     5000.00
    52    53    1    0.3300     7000.00
    53    54    1    0.2600     7000.00
    55    56    1    0.2400   100000.00
    55    61    1    0.2700     7500.00
    56    57    1    0.2400    25000.00
    57    58    1    0.3100     5000.00
    58    59    1    0.3300     7000.00
    59    60    1    0.2600     7000.00
    61    62    1    0.2400   100000.00
    61    67    1    0.2700     7500.00
    62    63    1    0.2400    25000.00
    63    64    1    0.3100     5000.00
    64    65    1    0.3300     7000.00
    65    66    1    0.2600     7000.00
    67    68    1    0.2400   100000.00
    67    73    1    0.2700     7500.00
    68    69    1    0.2400    25000.00
    69    70    1    0.3100     5000.00
    70    71    1    0.3300     7000.00
    71    72    1    0.2600     7000.00
    73    74    1    0.2400   100000.00
    73    79    1    0.2700     7500.00
    74    75    1    0.2400    25000.00
    75    76    1    0.3100     5000.00
    76    77    1    0.3300     7000.00
    77    78    1    0.2600     7000.00
    79    80    1    0.2400   100000.00
    79    85    1    0.2700     7500.00
    80    81    1    0.2400    25000.00
    81    82    1    0.3100     5000.00
    82    83    1    0.3300     7000.00
    83    84    1    0.2600     7000.00
    85    86    1    0.2400   100000.00
    85    91    1    0.2700     7500.00
    86    87    1    0.2400    25000.00
    87    88    1    0.3100     5000.00
    88    89    1    0.3300     7000.00
    89    90    1    0.2600     7000.00
    91    92    1    0.2400   100000.00
    91    97    1    0.2700     7500.00
    92    93    1    0.2400    25000.00
    93    94    1    0.3100     5000.00
    94    95    1    0.3300     7000.00
    95    96    1    0.2600     7000.00
    97    98    1    0.2400   100000.00
    97   103    1    0.2700     7500.00
    98    99    1    0.2400    25000.00
    99   100    1    0.3100     5000.00
   100   101    1    0.3300     7000.00
   101   102    1    0.2600     7000.00
   103   104    1    0.2400   100000.00
   103   109    1    0.2700     7500.00
   104   105    1    0.2400    25000.00
   105   106    1    0.3100     5000.00
   106   107    1    0.3300     7000.00
   107   108    1    0.2600     7000.00
   109   110    1    0.2400   100000.00
   109   115    1    0.2700     7500.00
   110   111    1    0.2400    25000.00
   111   112    1    0.3100     5000.00
   112   113    1    0.3300     7000.00
   113   114    1    0.2600     7000.00
   115   116    1    0.2400   100000.00
   116   117    1    0.2400    25000.00
   117   118    1    0.3100     5000.00
   118   119    1    0.3300     7000.00
   119   120    1    0.2600     7000.00
