pla polymer (water removed) t= 100.000
  182
    1LACTS  HO1    1   4.297   2.931   3.601
    1LACTS   O1    2   4.250   2.989   3.542
    1LACTS   C1    3   4.270   3.122   3.586
    1LACTS   O2    4   4.314   3.140   3.697
    1LACTS   C2    5   4.225   3.246   3.498
    1LACTS  H21    6   4.154   3.308   3.557
    1LACTS   C3    7   4.159   3.204   3.371
    1LACTS  H31    8   4.235   3.150   3.310
    1LACTS  H32    9   4.076   3.133   3.392
    1LACTS  H33   10   4.122   3.287   3.307
    2LACTR   O1   11   4.338   3.329   3.463
    2LACTR   C1   12   4.338   3.457   3.497
    2LACTR   O2   13   4.261   3.518   3.568
    2LACTR   C2   14   4.471   3.525   3.447
    2LACTR  H21   15   4.445   3.633   3.445
    2LACTR   C3   16   4.589   3.490   3.535
    2LACTR  H31   17   4.578   3.473   3.644
    2LACTR  H32   18   4.637   3.401   3.488
    2LACTR  H33   19   4.664   3.573   3.527
    3LACTR   O1   20   4.522   3.495   3.315
    3LACTR   C1   21   4.444   3.501   3.207
    3LACTR   O2   22   4.328   3.536   3.208
    3LACTR   C2   23   4.519   3.452   3.079
    3LACTR  H21   24   4.615   3.509   3.087
    3LACTR   C3   25   4.547   3.296   3.094
    3LACTR  H31   26   4.597   3.284   3.193
    3LACTR  H32   27   4.457   3.232   3.094
    3LACTR  H33   28   4.620   3.262   3.018
    4LACTR   O1   29   4.455   3.470   2.948
    4LACTR   C1   30   4.519   3.502   2.838
    4LACTR   O2   31   4.640   3.515   2.827
    4LACTR   C2   32   4.418   3.533   2.723
    4LACTR  H21   33   4.458   3.617   2.663
    4LACTR   C3   34   4.392   3.413   2.634
    4LACTR  H31   35   4.355   3.324   2.689
    4LACTR  H32   36   4.318   3.440   2.556
    4LACTR  H33   37   4.478   3.374   2.575
    5LACTR   O1   38   4.282   3.577   2.766
    5LACTR   C1   39   4.283   3.697   2.822
    5LACTR   O2   40   4.384   3.760   2.844
    5LACTR   C2   41   4.134   3.752   2.854
    5LACTR  H21   42   4.163   3.852   2.893
    5LACTR   C3   43   4.048   3.756   2.726
    5LACTR  H31   44   3.955   3.815   2.743
    5LACTR  H32   45   4.101   3.809   2.644
    5LACTR  H33   46   4.018   3.660   2.679
    6LACTR   O1   47   4.066   3.669   2.955
    6LACTR   C1   48   4.104   3.688   3.081
    6LACTR   O2   49   4.191   3.769   3.115
    6LACTR   C2   50   4.012   3.613   3.173
    6LACTR  H21   51   4.078   3.547   3.234
    6LACTR   C3   52   3.944   3.704   3.279
    6LACTR  H31   53   3.859   3.765   3.243
    6LACTR  H32   54   3.904   3.647   3.366
    6LACTR  H33   55   4.021   3.774   3.317
    7LACTS   O1   56   3.901   3.533   3.126
    7LACTS   C1   57   3.937   3.420   3.065
    7LACTS   O2   58   4.050   3.380   3.053
    7LACTS   C2   59   3.807   3.331   3.016
    7LACTS  H21   60   3.841   3.225   3.019
    7LACTS   C3   61   3.788   3.357   2.870
    7LACTS  H31   62   3.870   3.327   2.802
    7LACTS  H32   63   3.694   3.311   2.834
    7LACTS  H33   64   3.779   3.467   2.860
    8LACTR   O1   65   3.678   3.354   3.069
    8LACTR   C1   66   3.666   3.356   3.197
    8LACTR   O2   67   3.741   3.301   3.279
    8LACTR   C2   68   3.533   3.438   3.234
    8LACTR  H21   69   3.492   3.474   3.137
    8LACTR   C3   70   3.431   3.343   3.293
    8LACTR  H31   71   3.466   3.318   3.395
    8LACTR  H32   72   3.331   3.389   3.288
    8LACTR  H33   73   3.423   3.253   3.228
    9LACTS   O1   74   3.539   3.548   3.337
    9LACTS   C1   75   3.576   3.666   3.285
    9LACTS   O2   76   3.595   3.688   3.166
    9LACTS   C2   77   3.580   3.778   3.400
    9LACTS  H21   78   3.488   3.751   3.456
    9LACTS   C3   79   3.557   3.915   3.332
    9LACTS  H31   80   3.654   3.942   3.285
    9LACTS  H32   81   3.480   3.915   3.251
    9LACTS  H33   82   3.514   3.989   3.402
   10LACTR   O1   83   3.695   3.791   3.481
   10LACTR   C1   84   3.678   3.815   3.611
   10LACTR   O2   85   3.569   3.842   3.658
   10LACTR   C2   86   3.819   3.811   3.685
   10LACTR  H21   87   3.902   3.812   3.610
   10LACTR   C3   88   3.823   3.944   3.768
   10LACTR  H31   89   3.921   3.944   3.820
   10LACTR  H32   90   3.834   4.029   3.698
   10LACTR  H33   91   3.740   3.962   3.840
   11LACTS   O1   92   3.854   3.711   3.780
   11LACTS   C1   93   3.867   3.592   3.718
   11LACTS   O2   94   3.832   3.566   3.602
   11LACTS   C2   95   3.893   3.483   3.831
   11LACTS  H21   96   3.871   3.540   3.924
   11LACTS   C3   97   4.042   3.438   3.835
   11LACTS  H31   98   4.076   3.395   3.932
   11LACTS  H32   99   4.070   3.376   3.748
   11LACTS  H33  100   4.101   3.532   3.828
   12LACTS   O1  101   3.799   3.370   3.849
   12LACTS   C1  102   3.663   3.402   3.829
   12LACTS   O2  103   3.629   3.521   3.813
   12LACTS   C2  104   3.572   3.268   3.837
   12LACTS  H21  105   3.629   3.196   3.899
   12LACTS   C3  106   3.555   3.215   3.693
   12LACTS  H31  107   3.481   3.132   3.693
   12LACTS  H32  108   3.515   3.294   3.626
   12LACTS  H33  109   3.645   3.171   3.644
   13LACTS   O1  110   3.432   3.294   3.887
   13LACTS   C1  111   3.434   3.341   4.011
   13LACTS   O2  112   3.538   3.360   4.075
   13LACTS   C2  113   3.288   3.354   4.073
   13LACTS  H21  114   3.271   3.458   4.107
   13LACTS   C3  115   3.279   3.251   4.185
   13LACTS  H31  116   3.300   3.149   4.145
   13LACTS  H32  117   3.341   3.269   4.276
   13LACTS  H33  118   3.173   3.249   4.217
   14LACTR   O1  119   3.194   3.317   3.970
   14LACTR   C1  120   3.154   3.411   3.886
   14LACTR   O2  121   3.191   3.524   3.894
   14LACTR   C2  122   3.060   3.354   3.765
   14LACTR  H21  123   2.998   3.278   3.816
   14LACTR   C3  124   2.967   3.461   3.697
   14LACTR  H31  125   2.926   3.408   3.608
   14LACTR  H32  126   2.878   3.478   3.760
   14LACTR  H33  127   3.026   3.550   3.665
   15LACTR   O1  128   3.142   3.292   3.657
   15LACTR   C1  129   3.095   3.174   3.612
   15LACTR   O2  130   2.994   3.125   3.649
   15LACTR   C2  131   3.176   3.109   3.487
   15LACTR  H21  132   3.266   3.173   3.471
   15LACTR   C3  133   3.231   2.978   3.530
   15LACTR  H31  134   3.282   2.934   3.442
   15LACTR  H32  135   3.289   2.981   3.625
   15LACTR  H33  136   3.149   2.905   3.547
   16LACTR   O1  137   3.099   3.089   3.363
   16LACTR   C1  138   3.039   3.199   3.320
   16LACTR   O2  139   3.029   3.302   3.385
   16LACTR   C2  140   2.986   3.179   3.180
   16LACTR  H21  141   3.047   3.236   3.108
   16LACTR   C3  142   2.984   3.025   3.126
   16LACTR  H31  143   3.083   2.980   3.145
   16LACTR  H32  144   2.904   2.966   3.176
   16LACTR  H33  145   2.956   3.026   3.018
   17LACTR   O1  146   2.848   3.235   3.159
   17LACTR   C1  147   2.760   3.184   3.246
   17LACTR   O2  148   2.788   3.113   3.339
   17LACTR   C2  149   2.606   3.236   3.216
   17LACTR  H21  150   2.547   3.218   3.309
   17LACTR   C3  151   2.603   3.389   3.198
   17LACTR  H31  152   2.655   3.413   3.102
   17LACTR  H32  153   2.497   3.422   3.198
   17LACTR  H33  154   2.657   3.446   3.276
   18LACTR   O1  155   2.538   3.183   3.099
   18LACTR   C1  156   2.488   3.056   3.129
   18LACTR   O2  157   2.529   2.986   3.222
   18LACTR   C2  158   2.382   3.010   3.024
   18LACTR  H21  159   2.423   3.031   2.923
   18LACTR   C3  160   2.360   2.853   3.040
   18LACTR  H31  161   2.294   2.817   2.958
   18LACTR  H32  162   2.459   2.806   3.019
   18LACTR  H33  163   2.309   2.837   3.137
   19LACTR   O1  164   2.251   3.063   3.036
   19LACTR   C1  165   2.186   3.073   2.925
   19LACTR   O2  166   2.228   3.060   2.808
   19LACTR   C2  167   2.043   3.129   2.953
   19LACTR  H21  168   2.008   3.080   3.046
   19LACTR   C3  169   2.064   3.281   2.973
   19LACTR  H31  170   2.105   3.332   2.884
   19LACTR  H32  171   1.969   3.332   3.000
   19LACTR  H33  172   2.141   3.305   3.049
   20LACTR   O1  173   1.960   3.094   2.842
   20LACTR   C1  174   1.833   3.078   2.865
   20LACTR   O2  175   1.775   3.091   2.972
   20LACTR   C2  176   1.765   3.042   2.734
   20LACTR  H21  177   1.839   2.990   2.669
   20LACTR  H22  178   1.733   3.139   2.690
   20LACTR   C3  179   1.651   2.949   2.765
   20LACTR  H31  180   1.590   2.934   2.673
   20LACTR  H32  181   1.683   2.849   2.801
   20LACTR  H33  182   1.583   2.988   2.844
   7.01877   7.01877   7.01877
