Written by MDAnalysis
   20
    1PEO2    EC    1  -0.463   0.029   0.375
    2PEO2    EC    2  -0.395  -0.297   0.426
    3PEO2    EC    3  -0.187  -0.461   0.599
    4PEO2    EC    4   0.045  -0.272   0.675
    5PEO2    EC    5   0.035  -0.111   0.388
    6PEO2    EC    6  -0.137  -0.221   0.132
    7PEO2    EC    7  -0.090  -0.330  -0.177
    8PEO2    EC    8  -0.102  -0.149  -0.391
    9PEO2    EC    9  -0.093   0.154  -0.259
   10PEO2    EC   10  -0.377   0.321  -0.222
   11PEO2    EC   11  -0.699   0.274  -0.333
   12PEO2    EC   12  -0.730   0.229  -0.629
   13PEO2    EC   13  -0.487   0.148  -0.847
   14PEO2    EC   14  -0.223   0.278  -0.951
   15PEO2    EC   15   0.018   0.169  -1.172
   16PEO2    EC   16   0.142  -0.140  -1.195
   17PEO2    EC   17   0.315  -0.244  -0.976
   18PEO2    EC   18   0.400  -0.410  -0.715
   19PEO2    EC   19   0.293  -0.728  -0.682
   20PEO2    EC   20   0.202  -0.939  -0.934
   4.93925   4.93925   4.93925
