Written by MDAnalysis
  120
    1PSBM   C01    1   2.704   5.733   3.743
    2PSBM   N01    2   2.788   5.969   3.639
    3PSBM   P01    3   2.672   5.917   3.490
    4PSBM   101    4   2.577   5.824   3.222
    5PSBM   C02    5   2.489   5.610   3.415
    6PSBM   102    6   2.306   5.454   3.601
    7PSBM   C01    7   2.903   5.831   3.872
    8PSBM   N01    8   3.144   5.773   3.954
    9PSBM   P01    9   3.222   5.785   3.764
   10PSBM   101   10   3.355   6.031   3.676
   11PSBM   C02   11   3.471   5.888   3.427
   12PSBM   102   12   3.402   5.639   3.334
   13PSBM   C01   13   2.924   5.609   4.004
   14PSBM   N01   14   2.834   5.416   3.900
   15PSBM   P01   15   2.992   5.339   3.783
   16PSBM   101   16   3.241   5.314   3.625
   17PSBM   C02   17   3.071   5.362   3.368
   18PSBM   102   18   2.819   5.453   3.336
   19PSBM   C01   19   3.083   5.501   4.177
   20PSBM   N01   20   3.322   5.515   4.063
   21PSBM   P01   21   3.417   5.577   4.222
   22PSBM   101   22   3.422   5.865   4.228
   23PSBM   C02   23   3.581   5.906   4.472
   24PSBM   102   24   3.831   5.865   4.557
   25PSBM   C01   25   3.171   5.278   4.287
   26PSBM   N01   26   3.400   5.176   4.354
   27PSBM   P01   27   3.333   4.992   4.296
   28PSBM   101   28   3.225   4.707   4.286
   29PSBM   C02   29   3.005   4.888   4.194
   30PSBM   102   30   2.743   4.834   4.154
   31PSBM   C01   31   3.272   5.256   4.564
   32PSBM   N01   32   3.053   5.395   4.621
   33PSBM   P01   33   2.950   5.235   4.663
   34PSBM   101   34   2.803   5.015   4.614
   35PSBM   C02   35   2.546   4.924   4.739
   36PSBM   102   36   2.470   4.754   4.931
   37PSBM   C01   37   3.353   5.449   4.707
   38PSBM   N01   38   3.539   5.476   4.880
   39PSBM   P01   39   3.414   5.428   5.027
   40PSBM   101   40   3.248   5.462   5.272
   41PSBM   C02   41   3.058   5.337   5.066
   42PSBM   102   42   2.785   5.324   5.068
   43PSBM   C01   43   3.613   5.385   4.643
   44PSBM   N01   44   3.650   5.140   4.624
   45PSBM   P01   45   3.779   5.134   4.473
   46PSBM   101   46   3.908   5.165   4.200
   47PSBM   C02   47   3.644   5.221   4.063
   48PSBM   102   48   3.495   5.077   3.896
   49PSBM   C01   49   3.848   5.401   4.754
   50PSBM   N01   50   3.800   5.323   4.976
   51PSBM   P01   51   3.899   5.458   5.095
   52PSBM   101   52   4.018   5.555   5.381
   53PSBM   C02   53   3.782   5.656   5.562
   54PSBM   102   54   3.512   5.623   5.592
   55PSBM   C01   55   4.061   5.279   4.708
   56PSBM   N01   56   4.107   5.037   4.678
   57PSBM   P01   57   3.949   4.971   4.789
   58PSBM   101   58   3.792   4.862   4.975
   59PSBM   C02   59   3.499   4.957   4.994
   60PSBM   102   60   3.318   4.951   5.205
   61PSBM   C01   61   4.282   5.340   4.808
   62PSBM   N01   62   4.468   5.344   4.617
   63PSBM   P01   63   4.401   5.530   4.555
   64PSBM   101   64   4.454   5.825   4.482
   65PSBM   C02   65   4.589   5.834   4.747
   66PSBM   102   66   4.830   5.716   4.774
   67PSBM   C01   67   4.488   5.252   4.924
   68PSBM   N01   68   4.578   5.004   4.907
   69PSBM   P01   69   4.459   4.957   4.761
   70PSBM   101   70   4.481   4.885   4.521
   71PSBM   C02   71   4.326   4.693   4.340
   72PSBM   102   72   4.048   4.654   4.350
   73PSBM   C01   73   4.724   5.300   4.956
   74PSBM   N01   74   4.754   5.164   5.174
   75PSBM   P01   75   4.812   5.321   5.300
   76PSBM   101   76   4.728   5.530   5.504
   77PSBM   C02   77   4.505   5.589   5.313
   78PSBM   102   78   4.470   5.837   5.191
   79PSBM   C01   79   4.952   5.268   4.881
   80PSBM   N01   80   5.064   5.436   5.030
   81PSBM   P01   81   5.168   5.546   4.901
   82PSBM   101   82   5.358   5.718   4.730
   83PSBM   C02   83   5.239   5.515   4.533
   84PSBM   102   84   5.285   5.426   4.277
   85PSBM   C01   85   5.162   5.125   4.912
   86PSBM   N01   86   5.346   5.232   4.777
   87PSBM   P01   87   5.365   5.091   4.644
   88PSBM   101   88   5.350   4.905   4.410
   89PSBM   C02   89   5.255   4.750   4.651
   90PSBM   102   90   5.149   4.507   4.619
   91PSBM   C01   91   5.322   5.071   5.091
   92PSBM   N01   92   5.409   4.841   5.056
   93PSBM   P01   93   5.303   4.751   5.193
   94PSBM   101   94   5.221   4.642   5.449
   95PSBM   C02   95   5.037   4.878   5.453
   96PSBM   102   96   4.913   4.923   5.688
   97PSBM   C01   97   5.545   5.141   5.210
   98PSBM   N01   98   5.766   5.105   5.120
   99PSBM   P01   99   5.863   5.265   5.187
  100PSBM   101  100   5.979   5.527   5.228
  101PSBM   C02  101   5.703   5.620   5.313
  102PSBM   102  102   5.488   5.696   5.168
  103PSBM   C01  103   5.710   5.138   5.441
  104PSBM   N01  104   5.490   5.021   5.489
  105PSBM   P01  105   5.434   5.119   5.659
  106PSBM   101  106   5.415   5.047   5.947
  107PSBM   C02  107   5.152   5.174   5.987
  108PSBM   102  108   5.069   5.234   6.240
  109PSBM   C01  109   5.747   4.861   5.516
  110PSBM   N01  110   5.942   4.879   5.671
  111PSBM   P01  111   5.968   4.690   5.715
  112PSBM   101  112   5.951   4.412   5.854
  113PSBM   C02  113   5.647   4.466   5.817
  114PSBM   102  114   5.504   4.678   5.869
  115PSBM   C01  115   6.132   4.803   5.433
  116PSBM   N01  116   6.165   5.098   5.419
  117PSBM   P01  117   6.339   5.078   5.333
  118PSBM   101  118   6.592   5.016   5.202
  119PSBM   C02  119   6.515   5.237   4.995
  120PSBM   102  120   6.307   5.422   4.959
   7.70000   7.70000   7.70000
