pvp polymer (water removed) t= 100.000
  342
    1VIPS    C1    1   3.724   3.199   4.932
    1VIPS   H11    2   3.821   3.152   4.906
    1VIPS   H12    3   3.752   3.305   4.949
    1VIPS   H13    4   3.693   3.144   5.023
    1VIPS    C2    5   3.608   3.178   4.836
    1VIPS   H21    6   3.535   3.251   4.876
    1VIPS    N1    7   3.554   3.043   4.846
    1VIPS    C3    8   3.635   2.947   4.794
    1VIPS    O1    9   3.755   2.957   4.769
    1VIPS    C4   10   3.539   2.846   4.730
    1VIPS   H41   11   3.577   2.818   4.631
    1VIPS   H42   12   3.538   2.757   4.795
    1VIPS    C6   13   3.409   3.012   4.837
    1VIPS   H61   14   3.382   2.975   4.937
    1VIPS   H62   15   3.357   3.106   4.816
    1VIPS    C5   16   3.397   2.906   4.732
    1VIPS   H51   17   3.366   2.929   4.629
    1VIPS   H52   18   3.324   2.830   4.765
    2VIPS    C1   19   3.624   3.235   4.691
    2VIPS   H11   20   3.704   3.175   4.644
    2VIPS   H13   21   3.531   3.225   4.631
    2VIPS    C2   22   3.665   3.384   4.676
    2VIPS   H21   23   3.757   3.388   4.739
    2VIPS    N1   24   3.569   3.471   4.733
    2VIPS    C3   25   3.429   3.463   4.720
    2VIPS    O1   26   3.359   3.402   4.642
    2VIPS    C4   27   3.377   3.569   4.825
    2VIPS   H41   28   3.357   3.663   4.772
    2VIPS   H42   29   3.285   3.527   4.869
    2VIPS    C6   30   3.612   3.575   4.828
    2VIPS   H61   31   3.705   3.548   4.880
    2VIPS   H62   32   3.637   3.670   4.778
    2VIPS    C5   33   3.494   3.586   4.926
    2VIPS   H51   34   3.499   3.679   4.985
    2VIPS   H52   35   3.503   3.498   4.990
    3VIPS    C1   36   3.705   3.431   4.538
    3VIPS   H11   37   3.714   3.541   4.534
    3VIPS   H13   38   3.625   3.411   4.462
    3VIPS    C2   39   3.833   3.371   4.477
    3VIPS   H21   40   3.831   3.265   4.508
    3VIPS    N1   41   3.949   3.425   4.548
    3VIPS    C3   42   4.009   3.545   4.516
    3VIPS    O1   43   3.961   3.644   4.462
    3VIPS    C4   44   4.137   3.545   4.601
    3VIPS   H41   45   4.230   3.587   4.559
    3VIPS   H42   46   4.115   3.611   4.687
    3VIPS    C6   47   4.020   3.326   4.629
    3VIPS   H61   48   3.966   3.315   4.724
    3VIPS   H62   49   4.040   3.226   4.587
    3VIPS    C5   50   4.154   3.397   4.643
    3VIPS   H51   51   4.237   3.355   4.584
    3VIPS   H52   52   4.178   3.398   4.750
    4VIPS    C1   53   3.850   3.390   4.323
    4VIPS   H11   54   3.749   3.427   4.295
    4VIPS   H13   55   3.934   3.457   4.292
    4VIPS    C2   56   3.889   3.255   4.252
    4VIPS   H21   57   3.839   3.174   4.309
    4VIPS    N1   58   4.030   3.230   4.258
    4VIPS    C3   59   4.091   3.103   4.259
    4VIPS    O1   60   4.033   2.996   4.290
    4VIPS    C4   61   4.226   3.126   4.195
    4VIPS   H41   62   4.287   3.144   4.284
    4VIPS   H42   63   4.259   3.034   4.145
    4VIPS    C6   64   4.114   3.330   4.191
    4VIPS   H61   65   4.062   3.407   4.131
    4VIPS   H62   66   4.172   3.393   4.259
    4VIPS    C5   67   4.205   3.247   4.100
    4VIPS   H51   68   4.302   3.295   4.081
    4VIPS   H52   69   4.155   3.205   4.011
    5VIPS    C1   70   3.831   3.245   4.110
    5VIPS   H11   71   3.852   3.339   4.054
    5VIPS   H13   72   3.895   3.167   4.064
    5VIPS    C2   73   3.679   3.217   4.119
    5VIPS   H21   74   3.630   3.290   4.186
    5VIPS    N1   75   3.662   3.088   4.179
    5VIPS    C3   76   3.555   3.057   4.265
    5VIPS    O1   77   3.460   3.128   4.309
    5VIPS    C4   78   3.552   2.905   4.254
    5VIPS   H41   79   3.606   2.872   4.344
    5VIPS   H42   80   3.450   2.865   4.257
    5VIPS    C6   81   3.735   2.968   4.129
    5VIPS   H61   82   3.784   2.974   4.031
    5VIPS   H62   83   3.809   2.942   4.205
    5VIPS    C5   84   3.623   2.876   4.121
    5VIPS   H51   85   3.665   2.775   4.106
    5VIPS   H52   86   3.555   2.892   4.036
    6VIPS    C1   87   3.615   3.216   3.978
    6VIPS   H11   88   3.687   3.173   3.905
    6VIPS   H13   89   3.526   3.149   3.975
    6VIPS    C2   90   3.560   3.352   3.930
    6VIPS   H21   91   3.649   3.419   3.926
    6VIPS    N1   92   3.466   3.407   4.022
    6VIPS    C3   93   3.342   3.358   4.059
    6VIPS    O1   94   3.265   3.278   3.999
    6VIPS    C4   95   3.311   3.428   4.190
    6VIPS   H41   96   3.240   3.509   4.168
    6VIPS   H42   97   3.283   3.355   4.267
    6VIPS    C6   98   3.510   3.522   4.102
    6VIPS   H61   99   3.619   3.525   4.117
    6VIPS   H62  100   3.471   3.616   4.061
    6VIPS    C5  101   3.444   3.485   4.233
    6VIPS   H51  102   3.440   3.574   4.298
    6VIPS   H52  103   3.500   3.407   4.287
    7VIPR    C1  104   3.506   3.350   3.789
    7VIPR   H11  105   3.519   3.252   3.737
    7VIPR   H13  106   3.395   3.351   3.803
    7VIPR    C2  107   3.549   3.452   3.676
    7VIPR   H21  108   3.541   3.392   3.583
    7VIPR    N1  109   3.451   3.561   3.667
    7VIPR    C3  110   3.335   3.556   3.589
    7VIPR    O1  111   3.311   3.460   3.517
    7VIPR    C4  112   3.228   3.644   3.657
    7VIPR   H41  113   3.203   3.734   3.598
    7VIPR   H42  114   3.138   3.584   3.679
    7VIPR    C6  115   3.446   3.673   3.760
    7VIPR   H61  116   3.492   3.649   3.857
    7VIPR   H62  117   3.492   3.763   3.718
    7VIPR    C5  118   3.291   3.674   3.792
    7VIPR   H51  119   3.276   3.772   3.840
    7VIPR   H52  120   3.269   3.607   3.876
    8VIPS    C1  121   3.701   3.499   3.667
    8VIPS   H11  122   3.699   3.581   3.593
    8VIPS   H13  123   3.721   3.552   3.763
    8VIPS    C2  124   3.811   3.391   3.638
    8VIPS   H21  125   3.793   3.322   3.724
    8VIPS    N1  126   3.940   3.435   3.669
    8VIPS    C3  127   4.008   3.539   3.604
    8VIPS    O1  128   3.956   3.631   3.550
    8VIPS    C4  129   4.161   3.512   3.608
    8VIPS   H41  130   4.208   3.539   3.512
    8VIPS   H42  131   4.213   3.586   3.670
    8VIPS    C6  132   4.034   3.359   3.741
    8VIPS   H61  133   4.050   3.403   3.840
    8VIPS   H62  134   4.003   3.254   3.756
    8VIPS    C5  135   4.166   3.364   3.662
    8VIPS   H51  136   4.155   3.286   3.585
    8VIPS   H52  137   4.249   3.336   3.729
    9VIPR    C1  138   3.803   3.301   3.513
    9VIPR   H11  139   3.703   3.254   3.501
    9VIPR   H13  140   3.871   3.215   3.528
    9VIPR    C2  141   3.841   3.363   3.375
    9VIPR   H21  142   3.898   3.458   3.383
    9VIPR    N1  143   3.920   3.282   3.288
    9VIPR    C3  144   4.051   3.304   3.249
    9VIPR    O1  145   4.132   3.396   3.269
    9VIPR    C4  146   4.107   3.161   3.222
    9VIPR   H41  147   4.134   3.151   3.116
    9VIPR   H42  148   4.202   3.156   3.278
    9VIPR    C6  149   3.868   3.150   3.251
    9VIPR   H61  150   3.770   3.128   3.295
    9VIPR   H62  151   3.842   3.148   3.144
    9VIPR    C5  152   3.996   3.068   3.270
    9VIPR   H51  153   3.981   2.975   3.213
    9VIPR   H52  154   4.008   3.033   3.373
   10VIPR    C1  155   3.708   3.418   3.305
   10VIPR   H11  156   3.652   3.335   3.256
   10VIPR   H13  157   3.650   3.454   3.393
   10VIPR    C2  158   3.730   3.543   3.213
   10VIPR   H21  159   3.831   3.584   3.233
   10VIPR    N1  160   3.725   3.508   3.072
   10VIPR    C3  161   3.843   3.486   3.001
   10VIPR    O1  162   3.951   3.539   3.035
   10VIPR    C4  163   3.816   3.372   2.904
   10VIPR   H41  164   3.838   3.418   2.806
   10VIPR   H42  165   3.885   3.287   2.908
   10VIPR    C6  166   3.611   3.455   3.005
   10VIPR   H61  167   3.535   3.429   3.080
   10VIPR   H62  168   3.566   3.532   2.940
   10VIPR    C5  169   3.670   3.331   2.931
   10VIPR   H51  170   3.611   3.297   2.844
   10VIPR   H52  171   3.677   3.247   3.001
   11VIPS    C1  172   3.619   3.645   3.256
   11VIPS   H11  173   3.544   3.602   3.325
   11VIPS   H13  174   3.557   3.671   3.168
   11VIPS    C2  175   3.677   3.777   3.317
   11VIPS   H21  176   3.760   3.743   3.382
   11VIPS    N1  177   3.592   3.855   3.406
   11VIPS    C3  178   3.457   3.873   3.392
   11VIPS    O1  179   3.366   3.806   3.337
   11VIPS    C4  180   3.417   3.986   3.484
   11VIPS   H41  181   3.362   4.066   3.432
   11VIPS   H42  182   3.354   3.949   3.566
   11VIPS    C6  183   3.647   3.924   3.519
   11VIPS   H61  184   3.650   3.858   3.607
   11VIPS   H62  185   3.752   3.954   3.510
   11VIPS    C5  186   3.553   4.045   3.527
   11VIPS   H51  187   3.580   4.130   3.464
   11VIPS   H52  188   3.553   4.091   3.627
   12VIPS    C1  189   3.751   3.855   3.212
   12VIPS   H11  190   3.804   3.936   3.266
   12VIPS   H13  191   3.831   3.789   3.170
   12VIPS    C2  192   3.683   3.923   3.092
   12VIPS   H21  193   3.599   3.861   3.054
   12VIPS    N1  194   3.780   3.957   2.987
   12VIPS    C3  195   3.896   4.028   3.012
   12VIPS    O1  196   3.919   4.091   3.116
   12VIPS    C4  197   3.990   3.966   2.916
   12VIPS   H41  198   4.024   4.038   2.840
   12VIPS   H42  199   4.087   3.951   2.967
   12VIPS    C6  200   3.783   3.861   2.870
   12VIPS   H61  201   3.735   3.766   2.896
   12VIPS   H62  202   3.742   3.905   2.778
   12VIPS    C5  203   3.932   3.836   2.863
   12VIPS   H51  204   3.966   3.807   2.763
   12VIPS   H52  205   3.969   3.758   2.932
   13VIPS    C1  206   3.608   4.056   3.127
   13VIPS   H11  207   3.667   4.122   3.195
   13VIPS   H13  208   3.528   4.028   3.199
   13VIPS    C2  209   3.541   4.153   3.012
   13VIPS   H21  210   3.593   4.132   2.916
   13VIPS    N1  211   3.563   4.293   3.051
   13VIPS    C3  212   3.513   4.359   3.166
   13VIPS    O1  213   3.477   4.313   3.275
   13VIPS    C4  214   3.502   4.505   3.126
   13VIPS   H41  215   3.399   4.544   3.134
   13VIPS   H42  216   3.564   4.568   3.191
   13VIPS    C6  217   3.637   4.379   2.965
   13VIPS   H61  218   3.740   4.403   2.995
   13VIPS   H62  219   3.640   4.337   2.864
   13VIPS    C5  220   3.549   4.504   2.984
   13VIPS   H51  221   3.464   4.513   2.914
   13VIPS   H52  222   3.609   4.595   2.975
   14VIPS    C1  223   3.387   4.130   3.002
   14VIPS   H11  224   3.345   4.155   3.101
   14VIPS   H13  225   3.350   4.209   2.933
   14VIPS    C2  226   3.328   3.998   2.958
   14VIPS   H21  227   3.342   3.930   3.045
   14VIPS    N1  228   3.414   3.943   2.851
   14VIPS    C3  229   3.429   3.810   2.817
   14VIPS    O1  230   3.406   3.722   2.896
   14VIPS    C4  231   3.454   3.810   2.670
   14VIPS   H41  232   3.562   3.808   2.654
   14VIPS   H42  233   3.417   3.722   2.616
   14VIPS    C6  234   3.443   4.023   2.730
   14VIPS   H61  235   3.391   4.120   2.734
   14VIPS   H62  236   3.550   4.047   2.730
   14VIPS    C5  237   3.397   3.940   2.616
   14VIPS   H51  238   3.430   3.972   2.516
   14VIPS   H52  239   3.288   3.949   2.624
   15VIPS    C1  240   3.184   4.014   2.905
   15VIPS   H11  241   3.179   4.082   2.817
   15VIPS   H13  242   3.163   3.912   2.866
   15VIPS    C2  243   3.085   4.068   3.010
   15VIPS   H21  244   3.130   4.166   3.036
   15VIPS    N1  245   3.070   3.992   3.128
   15VIPS    C3  246   3.056   4.052   3.256
   15VIPS    O1  247   3.078   4.174   3.276
   15VIPS    C4  248   2.991   3.944   3.348
   15VIPS   H41  249   3.061   3.896   3.419
   15VIPS   H42  250   2.915   3.994   3.410
   15VIPS    C6  251   3.014   3.853   3.124
   15VIPS   H61  252   2.956   3.824   3.036
   15VIPS   H62  253   3.095   3.778   3.136
   15VIPS    C5  254   2.924   3.846   3.244
   15VIPS   H51  255   2.902   3.743   3.276
   15VIPS   H52  256   2.829   3.895   3.218
   16VIPR    C1  257   2.955   4.109   2.947
   16VIPR   H11  258   2.969   4.094   2.838
   16VIPR   H13  259   2.883   4.031   2.981
   16VIPR    C2  260   2.908   4.250   2.969
   16VIPR   H21  261   2.954   4.282   3.065
   16VIPR    N1  262   2.971   4.342   2.874
   16VIPR    C3  263   2.941   4.342   2.734
   16VIPR    O1  264   2.838   4.288   2.696
   16VIPR    C4  265   3.058   4.406   2.661
   16VIPR   H41  266   3.081   4.343   2.573
   16VIPR   H42  267   3.029   4.509   2.635
   16VIPR    C6  268   3.090   4.428   2.901
   16VIPR   H61  269   3.061   4.532   2.920
   16VIPR   H62  270   3.149   4.393   2.987
   16VIPR    C5  271   3.163   4.399   2.766
   16VIPR   H51  272   3.212   4.300   2.770
   16VIPR   H52  273   3.252   4.461   2.749
   17VIPS    C1  274   2.755   4.256   2.989
   17VIPS   H11  275   2.724   4.363   2.990
   17VIPS   H13  276   2.706   4.218   2.896
   17VIPS    C2  277   2.686   4.189   3.111
   17VIPS   H21  278   2.738   4.093   3.130
   17VIPS    N1  279   2.544   4.163   3.099
   17VIPS    C3  280   2.455   4.214   3.001
   17VIPS    O1  281   2.469   4.320   2.946
   17VIPS    C4  282   2.363   4.091   2.955
   17VIPS   H41  283   2.259   4.111   2.984
   17VIPS   H42  284   2.360   4.072   2.847
   17VIPS    C6  285   2.480   4.047   3.153
   17VIPS   H61  286   2.548   3.981   3.209
   17VIPS   H62  287   2.403   4.076   3.227
   17VIPS    C5  288   2.424   3.974   3.037
   17VIPS   H51  289   2.340   3.907   3.062
   17VIPS   H52  290   2.500   3.918   2.981
   18VIPS    C1  291   2.704   4.272   3.235
   18VIPS   H11  292   2.811   4.268   3.263
   18VIPS   H13  293   2.645   4.226   3.317
   18VIPS    C2  294   2.658   4.421   3.237
   18VIPS   H21  295   2.593   4.436   3.148
   18VIPS    N1  296   2.766   4.509   3.224
   18VIPS    C3  297   2.848   4.550   3.333
   18VIPS    O1  298   2.868   4.490   3.438
   18VIPS    C4  299   2.887   4.700   3.301
   18VIPS   H41  300   2.875   4.757   3.395
   18VIPS   H42  301   2.992   4.700   3.267
   18VIPS    C6  302   2.757   4.605   3.118
   18VIPS   H61  303   2.817   4.576   3.030
   18VIPS   H62  304   2.661   4.604   3.065
   18VIPS    C5  305   2.791   4.735   3.187
   18VIPS   H51  306   2.695   4.777   3.220
   18VIPS   H52  307   2.832   4.814   3.123
   19VIPR    C1  308   2.563   4.446   3.368
   19VIPR   H11  309   2.625   4.448   3.460
   19VIPR   H13  310   2.490   4.364   3.381
   19VIPR    C2  311   2.469   4.571   3.341
   19VIPR   H21  312   2.543   4.650   3.318
   19VIPR    N1  313   2.373   4.561   3.236
   19VIPR    C3  314   2.356   4.651   3.131
   19VIPR    O1  315   2.450   4.723   3.096
   19VIPR    C4  316   2.225   4.623   3.058
   19VIPR   H41  317   2.176   4.715   3.024
   19VIPR   H42  318   2.243   4.559   2.970
   19VIPR    C6  319   2.253   4.482   3.260
   19VIPR   H61  320   2.264   4.379   3.223
   19VIPR   H62  321   2.217   4.485   3.363
   19VIPR    C5  322   2.144   4.553   3.171
   19VIPR   H51  323   2.091   4.633   3.224
   19VIPR   H52  324   2.074   4.474   3.139
   20VIPR    C1  325   2.416   4.622   3.476
   20VIPR   H11  326   2.349   4.542   3.514
   20VIPR   H13  327   2.502   4.637   3.546
   20VIPR    C2  328   2.343   4.757   3.470
   20VIPR   H21  329   2.235   4.739   3.455
   20VIPR   H22  330   2.379   4.822   3.387
   20VIPR    N1  331   2.345   4.829   3.598
   20VIPR    C3  332   2.289   4.954   3.602
   20VIPR    O1  333   2.306   5.035   3.516
   20VIPR    C4  334   2.201   4.965   3.729
   20VIPR   H41  335   2.245   5.019   3.814
   20VIPR   H42  336   2.105   5.010   3.699
   20VIPR    C6  337   2.314   4.754   3.719
   20VIPR   H61  338   2.307   4.644   3.712
   20VIPR   H62  339   2.395   4.766   3.793
   20VIPR    C5  340   2.188   4.822   3.774
   20VIPR   H51  341   2.181   4.806   3.882
   20VIPR   H52  342   2.099   4.776   3.729
   6.83181   6.83181   6.83181
